Gyas ROwers Mature At Cryogenic Speed
 3683
    1CNR4    N1    1   1.589   1.162   1.198
    1CNR4    O1    2   1.844   1.236   1.428
    1CNR4    O2    3   1.373   1.316   1.428
    1CNR4    C1    4   1.748   1.364   1.610
    1CNR4    C2    5   1.736   1.296   1.489
    1CNR4    C3    6   1.610   1.282   1.427
    1CNR4    C4    7   1.496   1.337   1.489
    1CNR4    C5    8   1.506   1.405   1.610
    1CNR4    C6    9   1.633   1.419   1.668
    1CNR4    H1   10   1.642   1.477   1.759
    1CNR4    C7   11   1.598   1.215   1.301
    1CNR4    C8   12   1.318   1.422   1.352
    1CNR4    H2   13   1.251   1.375   1.280
    1CNR4    H3   14   1.398   1.479   1.301
    1CNR4    C9   15   1.382   1.468   1.672
    1CNR4    H4   16   1.296   1.408   1.638
    1CNR4   C10   17   1.381   1.470   1.826
    1CNR4    H5   18   1.461   1.534   1.865
    1CNR4    H6   19   1.286   1.516   1.858
    1CNR4    N2   20   2.192   1.589   1.198
    1CNR4    O3   21   2.118   1.844   1.428
    1CNR4    O4   22   2.038   1.373   1.428
    1CNR4   C11   23   1.990   1.748   1.610
    1CNR4   C12   24   2.058   1.736   1.489
    1CNR4   C13   25   2.073   1.610   1.427
    1CNR4   C14   26   2.018   1.496   1.489
    1CNR4   C15   27   1.949   1.506   1.610
    1CNR4   C16   28   1.935   1.633   1.668
    1CNR4    H7   29   1.878   1.642   1.759
    1CNR4   C17   30   2.140   1.598   1.301
    1CNR4   C18   31   1.932   1.318   1.352
    1CNR4    H8   32   1.979   1.251   1.280
    1CNR4    H9   33   1.876   1.398   1.301
    1CNR4   C19   34   1.887   1.382   1.672
    1CNR4   H10   35   1.946   1.296   1.638
    1CNR4   C20   36   1.885   1.381   1.826
    1CNR4   H11   37   1.820   1.461   1.865
    1CNR4   H12   38   1.839   1.287   1.858
    1CNR4    N3   39   1.162   1.765   1.198
    1CNR4    O5   40   1.236   1.510   1.428
    1CNR4    O6   41   1.316   1.981   1.428
    1CNR4   C21   42   1.364   1.606   1.610
    1CNR4   C22   43   1.296   1.619   1.489
    1CNR4   C23   44   1.282   1.745   1.427
    1CNR4   C24   45   1.336   1.859   1.489
    1CNR4   C25   46   1.405   1.848   1.610
    1CNR4   C26   47   1.419   1.721   1.668
    1CNR4   H13   48   1.477   1.712   1.759
    1CNR4   C27   49   1.215   1.756   1.301
    1CNR4   C28   50   1.422   2.036   1.352
    1CNR4   H14   51   1.375   2.103   1.280
    1CNR4   H15   52   1.478   1.957   1.301
    1CNR4   C29   53   1.468   1.973   1.672
    1CNR4   H16   54   1.408   2.058   1.638
    1CNR4   C30   55   1.470   1.973   1.826
    1CNR4   H17   56   1.534   1.893   1.865
    1CNR4   H18   57   1.516   2.068   1.858
    1CNR4    N4   58   1.765   2.192   1.198
    1CNR4    O7   59   1.510   2.118   1.428
    1CNR4    O8   60   1.981   2.038   1.428
    1CNR4   C31   61   1.606   1.990   1.610
    1CNR4   C32   62   1.619   2.058   1.489
    1CNR4   C33   63   1.745   2.072   1.427
    1CNR4   C34   64   1.859   2.018   1.489
    1CNR4   C35   65   1.848   1.949   1.610
    1CNR4   C36   66   1.721   1.935   1.668
    1CNR4   H19   67   1.712   1.878   1.759
    1CNR4   C37   68   1.756   2.140   1.301
    1CNR4   C38   69   2.036   1.932   1.352
    1CNR4   H20   70   2.103   1.979   1.280
    1CNR4   H21   71   1.957   1.876   1.301
    1CNR4   C39   72   1.973   1.887   1.672
    1CNR4   H22   73   2.058   1.946   1.638
    1CNR4   C40   74   1.973   1.884   1.826
    1CNR4   H23   75   1.893   1.820   1.865
    1CNR4   H24   76   2.068   1.839   1.858
    1CNR4   C41   77   1.332   1.959   1.894
    1CNR4   C42   78   1.235   2.071   1.853
    1CNR4   C43   79   1.350   1.954   2.046
    1CNR4   H25   80   1.288   1.864   1.862
    1CNR4   H26   81   1.212   2.069   1.746
    1CNR4   H27   82   1.140   2.061   1.907
    1CNR4   H28   83   1.277   2.170   1.877
    1CNR4   H29   84   1.418   1.873   2.074
    1CNR4   H30   85   1.393   2.048   2.083
    1CNR4   H31   86   1.254   1.938   2.097
    1CNR4   C44   87   1.959   2.022   1.894
    1CNR4   C45   88   2.071   2.120   1.853
    1CNR4   C46   89   1.954   2.004   2.046
    1CNR4   H32   90   1.864   2.066   1.862
    1CNR4   H33   91   2.069   2.142   1.746
    1CNR4   H34   92   2.061   2.215   1.907
    1CNR4   H35   93   2.170   2.078   1.877
    1CNR4   H36   94   1.873   1.936   2.074
    1CNR4   H37   95   2.048   1.962   2.083
    1CNR4   H38   96   1.938   2.100   2.097
    1CNR4   C47   97   1.395   1.332   1.894
    1CNR4   C48   98   1.283   1.235   1.853
    1CNR4   C49   99   1.400   1.350   2.046
    1CNR4   H39  100   1.491   1.288   1.862
    1CNR4   H40  101   1.285   1.212   1.746
    1CNR4   H41  102   1.293   1.140   1.907
    1CNR4   H42  103   1.185   1.277   1.877
    1CNR4   H43  104   1.481   1.418   2.074
    1CNR4   H44  105   1.306   1.393   2.083
    1CNR4   H45  106   1.416   1.254   2.097
    1CNR4   C50  107   2.022   1.395   1.894
    1CNR4   C51  108   2.120   1.283   1.853
    1CNR4   C52  109   2.004   1.400   2.046
    1CNR4   H46  110   2.066   1.491   1.862
    1CNR4   H47  111   2.143   1.285   1.746
    1CNR4   H48  112   2.215   1.293   1.907
    1CNR4   H49  113   2.078   1.185   1.877
    1CNR4   H50  114   1.936   1.482   2.074
    1CNR4   H51  115   1.962   1.306   2.083
    1CNR4   H52  116   2.100   1.416   2.097
    2SOL     OW  117   0.230   0.628   0.113
    2SOL    HW1  118   0.137   0.626   0.150
    2SOL    HW2  119   0.231   0.589   0.021
    3SOL     OW  120   0.225   0.275   0.996
    3SOL    HW1  121   0.260   0.258   1.088
    3SOL    HW2  122   0.137   0.230   0.984
    4SOL     OW  123   0.019   0.368   0.647
    4SOL    HW1  124  -0.063   0.411   0.686
    4SOL    HW2  125  -0.009   0.295   0.584
    5SOL     OW  126   0.569   1.275   1.165
    5SOL    HW1  127   0.476   1.268   1.128
    5SOL    HW2  128   0.580   1.364   1.209
    6SOL     OW  129   1.555   1.511   0.703
    6SOL    HW1  130   1.498   1.495   0.784
    6SOL    HW2  131   1.496   1.521   0.623
    7SOL     OW  132   1.135   0.703   0.717
    7SOL    HW1  133   1.192   0.781   0.692
    7SOL    HW2  134   1.075   0.729   0.793
    8SOL     OW  135   1.755   0.607   0.231
    8SOL    HW1  136   1.743   0.594   0.132
    8SOL    HW2  137   1.725   0.526   0.280
    9SOL     OW  138   0.768   1.144   1.023
    9SOL    HW1  139   0.690   1.161   1.083
    9SOL    HW2  140   0.802   1.231   0.987
   10SOL     OW  141   0.850   0.798   1.823
   10SOL    HW1  142   0.846   0.874   1.888
   10SOL    HW2  143   0.872   0.834   1.732
   11SOL     OW  144   0.685   1.012   0.665
   11SOL    HW1  145   0.754   0.996   0.735
   11SOL    HW2  146   0.612   1.069   0.703
   12SOL     OW  147   0.686   1.161   1.803
   12SOL    HW1  148   0.746   1.240   1.817
   12SOL    HW2  149   0.600   1.192   1.762
   13SOL     OW  150   0.335   1.435   1.061
   13SOL    HW1  151   0.257   1.404   1.008
   13SOL    HW2  152   0.393   1.493   1.004
   14SOL     OW  153   0.438   0.392   1.499
   14SOL    HW1  154   0.520   0.336   1.508
   14SOL    HW2  155   0.357   0.334   1.503
   15SOL     OW  156   1.603   0.447   0.737
   15SOL    HW1  157   1.529   0.493   0.687
   15SOL    HW2  158   1.654   0.515   0.790
   16SOL     OW  159   0.231   1.713   0.483
   16SOL    HW1  160   0.265   1.790   0.537
   16SOL    HW2  161   0.275   1.713   0.393
   17SOL     OW  162   0.230   1.434   0.538
   17SOL    HW1  163   0.204   1.530   0.538
   17SOL    HW2  164   0.159   1.380   0.583
   18SOL     OW  165   0.240   1.091   0.886
   18SOL    HW1  166   0.254   1.007   0.938
   18SOL    HW2  167   0.185   1.155   0.941
   19SOL     OW  168   0.620   1.786   1.439
   19SOL    HW1  169   0.528   1.769   1.474
   19SOL    HW2  170   0.648   1.878   1.465
   20SOL     OW  171   0.606   0.964   0.123
   20SOL    HW1  172   0.613   1.048   0.069
   20SOL    HW2  173   0.652   0.977   0.211
   21SOL     OW  174   1.594   0.114   1.480
   21SOL    HW1  175   1.576   0.181   1.408
   21SOL    HW2  176   1.591   0.160   1.569
   22SOL     OW  177   0.122   0.643   0.563
   22SOL    HW1  178   0.077   0.555   0.580
   22SOL    HW2  179   0.121   0.697   0.647
   23SOL     OW  180   1.842   1.767   0.359
   23SOL    HW1  181   1.896   1.738   0.439
   23SOL    HW2  182   1.872   1.857   0.330
   24SOL     OW  183   0.027   1.596   0.117
   24SOL    HW1  184   0.008   1.500   0.138
   24SOL    HW2  185  -0.006   1.654   0.192
   25SOL     OW  186   1.689   0.922   0.612
   25SOL    HW1  187   1.784   0.893   0.620
   25SOL    HW2  188   1.681   0.987   0.537
   26SOL     OW  189   1.641   1.108   0.432
   26SOL    HW1  190   1.727   1.110   0.380
   26SOL    HW2  191   1.655   1.155   0.520
   27SOL     OW  192   0.113   0.737   1.597
   27SOL    HW1  193   0.201   0.724   1.642
   27SOL    HW2  194   0.100   0.834   1.575
   28SOL     OW  195   0.613   1.365   0.726
   28SOL    HW1  196   0.564   1.278   0.735
   28SOL    HW2  197   0.590   1.408   0.639
   29SOL     OW  198   0.809   0.004   0.502
   29SOL    HW1  199   0.849   0.095   0.493
   29SOL    HW2  200   0.709   0.012   0.508
   30SOL     OW  201   0.197   0.976   1.264
   30SOL    HW1  202   0.286   0.931   1.250
   30SOL    HW2  203   0.124   0.911   1.245
   31SOL     OW  204   1.525   0.999   0.190
   31SOL    HW1  205   1.462   0.923   0.203
   31SOL    HW2  206   1.573   1.017   0.276
   32SOL     OW  207   0.317   0.251   1.801
   32SOL    HW1  208   0.388   0.322   1.807
   32SOL    HW2  209   0.229   0.290   1.829
   33SOL     OW  210   1.466   1.417   0.953
   33SOL    HW1  211   1.407   1.423   1.033
   33SOL    HW2  212   1.451   1.329   0.907
   34SOL     OW  213   1.667   1.714   0.572
   34SOL    HW1  214   1.626   1.691   0.484
   34SOL    HW2  215   1.649   1.640   0.637
   35SOL     OW  216   0.598   0.729   0.270
   35SOL    HW1  217   0.622   0.798   0.202
   35SOL    HW2  218   0.520   0.762   0.324
   36SOL     OW  219   1.281   0.345   0.944
   36SOL    HW1  220   1.195   0.295   0.931
   36SOL    HW2  221   1.343   0.291   1.000
   37SOL     OW  222   1.576   1.662   0.307
   37SOL    HW1  223   1.665   1.708   0.310
   37SOL    HW2  224   1.555   1.638   0.212
   38SOL     OW  225   0.807   0.605   1.465
   38SOL    HW1  226   0.760   0.602   1.554
   38SOL    HW2  227   0.756   0.550   1.399
   39SOL     OW  228   1.394   0.469   1.674
   39SOL    HW1  229   1.374   0.512   1.762
   39SOL    HW2  230   1.472   0.407   1.683
   40SOL     OW  231   0.973   0.890   1.572
   40SOL    HW1  232   1.019   0.806   1.543
   40SOL    HW2  233   0.917   0.924   1.497
   41SOL     OW  234   0.991   0.410   1.242
   41SOL    HW1  235   0.914   0.444   1.296
   41SOL    HW2  236   0.957   0.359   1.163
   42SOL     OW  237   1.041   0.701   0.429
   42SOL    HW1  238   1.067   0.697   0.525
   42SOL    HW2  239   0.956   0.650   0.415
   43SOL     OW  240   0.076   0.811   0.789
   43SOL    HW1  241   0.175   0.799   0.798
   43SOL    HW2  242   0.052   0.906   0.810
   44SOL     OW  243   0.130   1.821   1.571
   44SOL    HW1  244   0.120   1.806   1.670
   44SOL    HW2  245   0.044   1.857   1.535
   45SOL     OW  246   0.865   0.348   0.195
   45SOL    HW1  247   0.924   0.411   0.146
   45SOL    HW2  248   0.884   0.254   0.166
   46SOL     OW  249   1.719   0.585   1.831
   46SOL    HW1  250   1.693   0.674   1.795
   46SOL    HW2  251   1.717   0.517   1.758
   47SOL     OW  252   1.362   1.144   0.545
   47SOL    HW1  253   1.445   1.115   0.497
   47SOL    HW2  254   1.313   1.211   0.489
   48SOL     OW  255   0.550   0.196   0.885
   48SOL    HW1  256   0.545   0.191   0.985
   48SOL    HW2  257   0.552   0.292   0.856
   49SOL     OW  258   1.008   1.456   0.477
   49SOL    HW1  259   0.962   1.528   0.425
   49SOL    HW2  260   1.004   1.476   0.575
   50SOL     OW  261   0.351   1.801   0.853
   50SOL    HW1  262   0.401   1.715   0.859
   50SOL    HW2  263   0.416   1.878   0.850
   51SOL     OW  264   1.795   1.066   0.873
   51SOL    HW1  265   1.733   1.051   0.797
   51SOL    HW2  266   1.743   1.077   0.958
   52SOL     OW  267   0.321   0.943   0.242
   52SOL    HW1  268   0.403   0.982   0.200
   52SOL    HW2  269   0.294   0.861   0.193
   53SOL     OW  270   1.458   0.735   0.728
   53SOL    HW1  271   1.453   0.670   0.803
   53SOL    HW2  272   1.538   0.794   0.741
   54SOL     OW  273   0.461   1.266   1.727
   54SOL    HW1  274   0.411   1.267   1.641
   54SOL    HW2  275   0.398   1.248   1.803
   55SOL     OW  276   1.111   1.776   0.237
   55SOL    HW1  277   1.051   1.714   0.287
   55SOL    HW2  278   1.142   1.732   0.152
   56SOL     OW  279   0.202   0.285   1.498
   56SOL    HW1  280   0.122   0.345   1.485
   56SOL    HW2  281   0.192   0.236   1.584
   57SOL     OW  282   1.632   1.377   0.081
   57SOL    HW1  283   1.600   1.471   0.071
   57SOL    HW2  284   1.556   1.314   0.069
   58SOL     OW  285   0.464   1.743   0.323
   58SOL    HW1  286   0.497   1.782   0.409
   58SOL    HW2  287   0.540   1.736   0.258
   59SOL     OW  288   1.400   0.107   0.426
   59SOL    HW1  289   1.376   0.070   0.336
   59SOL    HW2  290   1.499   0.123   0.430
   60SOL     OW  291   0.249   1.785   1.241
   60SOL    HW1  292   0.306   1.720   1.291
   60SOL    HW2  293   0.233   1.752   1.148
   61SOL     OW  294   0.940   1.698   0.904
   61SOL    HW1  295   1.020   1.641   0.925
   61SOL    HW2  296   0.891   1.658   0.827
   62SOL     OW  297   0.382   0.700   0.480
   62SOL    HW1  298   0.427   0.610   0.477
   62SOL    HW2  299   0.288   0.689   0.513
   63SOL     OW  300   1.547   0.222   1.729
   63SOL    HW1  301   1.542   0.259   1.821
   63SOL    HW2  302   1.475   0.153   1.717
   64SOL     OW  303   0.614   0.122   0.117
   64SOL    HW1  304   0.712   0.100   0.124
   64SOL    HW2  305   0.583   0.105   0.024
   65SOL     OW  306   0.781   0.264   1.749
   65SOL    HW1  307   0.848   0.203   1.792
   65SOL    HW2  308   0.708   0.283   1.814
   66SOL     OW  309   0.888   1.514   1.195
   66SOL    HW1  310   0.865   1.489   1.101
   66SOL    HW2  311   0.949   1.445   1.234
   67SOL     OW  312   1.351   0.590   1.433
   67SOL    HW1  313   1.379   0.547   1.518
   67SOL    HW2  314   1.376   0.686   1.434
   68SOL     OW  315   0.803   1.402   0.924
   68SOL    HW1  316   0.893   1.416   0.882
   68SOL    HW2  317   0.732   1.404   0.853
   69SOL     OW  318   0.922   0.503   0.899
   69SOL    HW1  319   0.897   0.494   0.803
   69SOL    HW2  320   0.970   0.421   0.930
   70SOL     OW  321   0.539   0.064   0.512
   70SOL    HW1  322   0.458   0.065   0.570
   70SOL    HW2  323   0.542   0.147   0.457
   71SOL     OW  324   1.434   1.188   0.041
   71SOL    HW1  325   1.466   1.112   0.098
   71SOL    HW2  326   1.342   1.215   0.071
   72SOL     OW  327   0.297   0.035   0.171
   72SOL    HW1  328   0.346   0.119   0.150
   72SOL    HW2  329   0.359  -0.030   0.216
   73SOL     OW  330   0.935   0.236   0.480
   73SOL    HW1  331   0.887   0.277   0.402
   73SOL    HW2  332   1.034   0.234   0.461
   74SOL     OW  333   1.076   0.683   1.464
   74SOL    HW1  334   0.996   0.622   1.467
   74SOL    HW2  335   1.157   0.630   1.440
   75SOL     OW  336   1.227   1.570   0.793
   75SOL    HW1  337   1.248   1.644   0.728
   75SOL    HW2  338   1.295   1.570   0.866
   76SOL     OW  339   0.459   1.152   0.741
   76SOL    HW1  340   0.388   1.125   0.806
   76SOL    HW2  341   0.433   1.124   0.648
   77SOL     OW  342   1.271   1.797   0.591
   77SOL    HW1  343   1.315   1.861   0.527
   77SOL    HW2  344   1.221   1.849   0.661
   78SOL     OW  345   1.032   0.549   0.016
   78SOL    HW1  346   0.991   0.631  -0.023
   78SOL    HW2  347   1.096   0.575   0.089
   79SOL     OW  348   0.078   0.556   1.386
   79SOL    HW1  349   0.170   0.555   1.345
   79SOL    HW2  350   0.072   0.630   1.453
   80SOL     OW  351   0.561   0.222   1.147
   80SOL    HW1  352   0.599   0.138   1.184
   80SOL    HW2  353   0.473   0.241   1.191
   81SOL     OW  354   0.866   0.454   0.642
   81SOL    HW1  355   0.834   0.526   0.580
   81SOL    HW2  356   0.890   0.373   0.589
   82SOL     OW  357   1.017   0.039   0.753
   82SOL    HW1  358   0.945   0.044   0.684
   82SOL    HW2  359   0.993  -0.030   0.822
   83SOL     OW  360   1.429   1.173   0.867
   83SOL    HW1  361   1.374   1.089   0.860
   83SOL    HW2  362   1.455   1.202   0.775
   84SOL     OW  363   1.466   0.590   0.992
   84SOL    HW1  364   1.436   0.495   0.999
   84SOL    HW2  365   1.539   0.606   1.058
   85SOL     OW  366   1.857   0.833   0.377
   85SOL    HW1  367   1.899   0.769   0.441
   85SOL    HW2  368   1.819   0.782   0.299
   86SOL     OW  369   0.488   1.385   0.174
   86SOL    HW1  370   0.401   1.370   0.221
   86SOL    HW2  371   0.471   1.411   0.079
   87SOL     OW  372   1.664   1.280   0.657
   87SOL    HW1  373   1.763   1.288   0.671
   87SOL    HW2  374   1.619   1.364   0.688
   88SOL     OW  375   1.390   0.575   0.078
   88SOL    HW1  376   1.336   0.554   0.159
   88SOL    HW2  377   1.481   0.534   0.087
   89SOL     OW  378   0.527   0.256   0.328
   89SOL    HW1  379   0.554   0.197   0.253
   89SOL    HW2  380   0.527   0.351   0.297
   90SOL     OW  381   1.064   1.347   1.340
   90SOL    HW1  382   0.984   1.324   1.395
   90SOL    HW2  383   1.147   1.321   1.389
   91SOL     OW  384   1.592   1.629   1.625
   91SOL    HW1  385   1.619   1.663   1.535
   91SOL    HW2  386   1.671   1.591   1.671
   92SOL     OW  387   1.111   1.195   1.100
   92SOL    HW1  388   1.071   1.239   1.181
   92SOL    HW2  389   1.070   1.232   1.017
   93SOL     OW  390   0.915   0.089   1.402
   93SOL    HW1  391   0.940   0.069   1.307
   93SOL    HW2  392   0.987   0.145   1.444
   94SOL     OW  393   0.980   1.116   1.719
   94SOL    HW1  394   0.881   1.122   1.729
   94SOL    HW2  395   1.003   1.036   1.663
   95SOL     OW  396   0.705   1.050   0.368
   95SOL    HW1  397   0.691   1.057   0.467
   95SOL    HW2  398   0.789   0.999   0.350
   96SOL     OW  399   0.410   0.813   1.251
   96SOL    HW1  400   0.496   0.825   1.301
   96SOL    HW2  401   0.368   0.726   1.278
   97SOL     OW  402   1.274   0.386   1.262
   97SOL    HW1  403   1.295   0.460   1.326
   97SOL    HW2  404   1.185   0.403   1.219
   98SOL     OW  405   0.064   1.564   1.331
   98SOL    HW1  406   0.018   1.646   1.297
   98SOL    HW2  407   0.162   1.583   1.340
   99SOL     OW  408   0.367   1.100   0.501
   99SOL    HW1  409   0.360   1.183   0.445
   99SOL    HW2  410   0.371   1.020   0.441
  100SOL     OW  411   0.566   0.537   0.865
  100SOL    HW1  412   0.578   0.603   0.791
  100SOL    HW2  413   0.612   0.571   0.948
  101SOL     OW  414   1.252   1.348   0.388
  101SOL    HW1  415   1.302   1.425   0.428
  101SOL    HW2  416   1.157   1.350   0.420
  102SOL     OW  417   1.582   0.639   0.472
  102SOL    HW1  418   1.551   0.700   0.545
  102SOL    HW2  419   1.632   0.691   0.403
  103SOL     OW  420   0.354   1.510   1.329
  103SOL    HW1  421   0.333   1.466   1.242
  103SOL    HW2  422   0.451   1.536   1.332
  104SOL     OW  423   0.402   0.751   1.598
  104SOL    HW1  424   0.470   0.806   1.551
  104SOL    HW2  425   0.442   0.663   1.625
  105SOL     OW  426   1.587   0.779   1.670
  105SOL    HW1  427   1.495   0.817   1.665
  105SOL    HW2  428   1.647   0.826   1.605
  106SOL     OW  429   1.013   0.105   1.770
  106SOL    HW1  430   1.019   0.190   1.718
  106SOL    HW2  431   1.045   0.029   1.713
  107SOL     OW  432   0.504   0.050   1.740
  107SOL    HW1  433   0.462  -0.007   1.670
  107SOL    HW2  434   0.438   0.119   1.772
  108SOL     OW  435   0.573   0.870   1.029
  108SOL    HW1  436   0.617   0.959   1.020
  108SOL    HW2  437   0.510   0.870   1.106
  109SOL     OW  438   1.360   0.862   1.045
  109SOL    HW1  439   1.285   0.862   0.979
  109SOL    HW2  440   1.397   0.770   1.054
  110SOL     OW  441   1.209   0.525   0.275
  110SOL    HW1  442   1.222   0.441   0.329
  110SOL    HW2  443   1.180   0.599   0.335
  111SOL     OW  444   0.307   0.213   1.231
  111SOL    HW1  445   0.284   0.250   1.321
  111SOL    HW2  446   0.277   0.118   1.225
  112SOL     OW  447   0.037   1.310   1.282
  112SOL    HW1  448   0.090   1.261   1.350
  112SOL    HW2  449   0.059   1.408   1.287
  113SOL     OW  450   0.732   0.634   1.064
  113SOL    HW1  451   0.791   0.608   0.988
  113SOL    HW2  452   0.704   0.730   1.053
  114SOL     OW  453   1.728   0.935   1.854
  114SOL    HW1  454   1.682   0.928   1.765
  114SOL    HW2  455   1.666   0.979   1.920
  115SOL     OW  456   0.307   0.063   0.618
  115SOL    HW1  457   0.296   0.157   0.651
  115SOL    HW2  458   0.302   0.000   0.695
  116SOL     OW  459   1.622   0.367   0.374
  116SOL    HW1  460   1.624   0.291   0.438
  116SOL    HW2  461   1.574   0.444   0.414
  117SOL     OW  462   1.023   0.766   0.966
  117SOL    HW1  463   1.038   0.787   1.062
  117SOL    HW2  464   0.993   0.671   0.957
  118SOL     OW  465   0.980   1.573   1.700
  118SOL    HW1  466   0.960   1.617   1.612
  118SOL    HW2  467   1.019   1.482   1.684
  119SOL     OW  468   0.350   0.898   1.804
  119SOL    HW1  469   0.426   0.942   1.852
  119SOL    HW2  470   0.385   0.851   1.722
  120SOL     OW  471   1.540   0.274   0.125
  120SOL    HW1  472   1.479   0.199   0.148
  120SOL    HW2  473   1.562   0.326   0.208
  121SOL     OW  474   1.303   0.838   0.042
  121SOL    HW1  475   1.337   0.745   0.057
  121SOL    HW2  476   1.321   0.865  -0.053
  122SOL     OW  477   1.068   1.333   0.849
  122SOL    HW1  478   1.075   1.249   0.794
  122SOL    HW2  479   1.130   1.402   0.813
  123SOL     OW  480   0.319   0.810   0.949
  123SOL    HW1  481   0.412   0.846   0.954
  123SOL    HW2  482   0.313   0.725   1.001
  124SOL     OW  483   0.339   0.509   1.006
  124SOL    HW1  484   0.287   0.426   0.989
  124SOL    HW2  485   0.416   0.514   0.942
  125SOL     OW  486   1.138   0.380   1.678
  125SOL    HW1  487   1.093   0.443   1.742
  125SOL    HW2  488   1.231   0.411   1.661
  126SOL     OW  489   1.160   0.207   1.477
  126SOL    HW1  490   1.160   0.271   1.554
  126SOL    HW2  491   1.188   0.255   1.394
  127SOL     OW  492   0.008   1.326   0.200
  127SOL    HW1  493  -0.085   1.347   0.169
  127SOL    HW2  494   0.018   1.227   0.213
  128SOL     OW  495   0.088   1.801   0.927
  128SOL    HW1  496   0.046   1.715   0.900
  128SOL    HW2  497   0.182   1.804   0.893
  129SOL     OW  498   0.504   1.568   0.910
  129SOL    HW1  499   0.570   1.642   0.919
  129SOL    HW2  500   0.548   1.489   0.868
  130SOL     OW  501   1.002   0.796   1.238
  130SOL    HW1  502   1.043   0.764   1.324
  130SOL    HW2  503   0.906   0.769   1.235
  131SOL     OW  504   0.040   0.544   1.114
  131SOL    HW1  505   0.125   0.511   1.073
  131SOL    HW2  506   0.053   0.559   1.212
  132SOL     OW  507   0.189   0.520   1.722
  132SOL    HW1  508   0.248   0.480   1.652
  132SOL    HW2  509   0.131   0.591   1.681
  133SOL     OW  510   1.369   0.950   1.660
  133SOL    HW1  511   1.408   1.039   1.680
  133SOL    HW2  512   1.379   0.930   1.563
  134SOL     OW  513   0.815   0.572   0.325
  134SOL    HW1  514   0.822   0.483   0.279
  134SOL    HW2  515   0.721   0.606   0.317
  135SOL     OW  516   1.657   0.604   1.206
  135SOL    HW1  517   1.619   0.535   1.268
  135SOL    HW2  518   1.739   0.568   1.162
  136SOL     OW  519   0.252   1.564   1.744
  136SOL    HW1  520   0.222   1.621   1.820
  136SOL    HW2  521   0.245   1.467   1.770
  137SOL     OW  522   0.671   0.464   1.269
  137SOL    HW1  523   0.637   0.375   1.239
  137SOL    HW2  524   0.697   0.518   1.189
  138SOL     OW  525   0.930   1.678   1.465
  138SOL    HW1  526   0.906   1.660   1.370
  138SOL    HW2  527   0.960   1.772   1.475
  139SOL     OW  528   0.473   0.500   0.191
  139SOL    HW1  529   0.534   0.580   0.195
  139SOL    HW2  530   0.378   0.531   0.198
  140SOL     OW  531   0.159   1.137   1.466
  140SOL    HW1  532   0.181   1.076   1.542
  140SOL    HW2  533   0.169   1.088   1.380
  141SOL     OW  534   1.347   1.059   1.234
  141SOL    HW1  535   1.371   0.996   1.160
  141SOL    HW2  536   1.257   1.099   1.216
  142SOL     OW  537   1.302   0.855   0.309
  142SOL    HW1  538   1.216   0.824   0.351
  142SOL    HW2  539   1.298   0.841   0.210
  143SOL     OW  540   1.759   1.747   1.154
  143SOL    HW1  541   1.820   1.777   1.081
  143SOL    HW2  542   1.721   1.658   1.132
  144SOL     OW  543   0.083   1.258   1.022
  144SOL    HW1  544   0.078   1.257   1.122
  144SOL    HW2  545   0.000   1.217   0.984
  145SOL     OW  546   0.688   1.662   1.716
  145SOL    HW1  547   0.632   1.743   1.725
  145SOL    HW2  548   0.740   1.666   1.630
  146SOL     OW  549   0.903   0.086   0.133
  146SOL    HW1  550   0.954   0.087   0.047
  146SOL    HW2  551   0.959   0.044   0.204
  147SOL     OW  552   1.726   0.135   0.523
  147SOL    HW1  553   1.799   0.118   0.456
  147SOL    HW2  554   1.695   0.048   0.561
  148SOL     OW  555   1.388   1.573   0.477
  148SOL    HW1  556   1.455   1.585   0.403
  148SOL    HW2  557   1.348   1.662   0.500
  149SOL     OW  558   0.130   1.794   1.851
  149SOL    HW1  559   0.089   1.720   1.904
  149SOL    HW2  560   0.194   1.845   1.909
  150SOL     OW  561   1.280   0.927   0.672
  150SOL    HW1  562   1.340   0.846   0.674
  150SOL    HW2  563   1.320   0.996   0.612
  151SOL     OW  564   0.830   1.273   1.422
  151SOL    HW1  565   0.825   1.306   1.517
  151SOL    HW2  566   0.744   1.292   1.376
  152SOL     OW  567   0.672   1.616   0.154
  152SOL    HW1  568   0.681   1.626   0.055
  152SOL    HW2  569   0.632   1.527   0.175
  153SOL     OW  570   1.650   1.720   1.394
  153SOL    HW1  571   1.703   1.730   1.310
  153SOL    HW2  572   1.623   1.810   1.428
  154SOL     OW  573   1.841   0.175   0.963
  154SOL    HW1  574   1.880   0.090   0.927
  154SOL    HW2  575   1.743   0.177   0.944
  155SOL     OW  576   0.263   0.326   0.720
  155SOL    HW1  577   0.184   0.377   0.686
  155SOL    HW2  578   0.254   0.311   0.818
  156SOL     OW  579   1.194   1.612   0.031
  156SOL    HW1  580   1.200   1.519   0.068
  156SOL    HW2  581   1.135   1.612  -0.049
  157SOL     OW  582   0.822   1.002   1.372
  157SOL    HW1  583   0.862   1.001   1.280
  157SOL    HW2  584   0.832   1.094   1.412
  158SOL     OW  585   0.916   0.910   0.291
  158SOL    HW1  586   0.979   0.948   0.223
  158SOL    HW2  587   0.956   0.827   0.330
  159SOL     OW  588   1.504   1.607   0.044
  159SOL    HW1  589   1.412   1.644   0.051
  159SOL    HW2  590   1.542   1.627  -0.046
  160SOL     OW  591   0.372   1.288   1.490
  160SOL    HW1  592   0.359   1.381   1.456
  160SOL    HW2  593   0.288   1.236   1.477
  161SOL     OW  594   1.039   1.098   0.696
  161SOL    HW1  595   0.969   1.051   0.750
  161SOL    HW2  596   1.098   1.030   0.653
  162SOL     OW  597   1.014   0.236   0.971
  162SOL    HW1  598   1.006   0.200   0.878
  162SOL    HW2  599   1.012   0.160   1.036
  163SOL     OW  600   0.590   1.487   0.491
  163SOL    HW1  601   0.632   1.429   0.421
  163SOL    HW2  602   0.546   1.566   0.447
  164SOL     OW  603   1.709   0.385   1.381
  164SOL    HW1  604   1.782   0.454   1.385
  164SOL    HW2  605   1.737   0.310   1.322
  165SOL     OW  606   0.255   1.348   0.290
  165SOL    HW1  607   0.159   1.349   0.263
  165SOL    HW2  608   0.267   1.401   0.374
  166SOL     OW  609   0.105   1.013   1.726
  166SOL    HW1  610   0.028   0.980   1.780
  166SOL    HW2  611   0.190   0.983   1.768
  167SOL     OW  612   0.672   0.203   1.489
  167SOL    HW1  613   0.762   0.187   1.449
  167SOL    HW2  614   0.680   0.208   1.588
  168SOL     OW  615   0.075   0.345   0.033
  168SOL    HW1  616  -0.017   0.317   0.004
  168SOL    HW2  617   0.106   0.422  -0.023
  169SOL     OW  618   1.440   0.856   1.398
  169SOL    HW1  619   1.383   0.908   1.335
  169SOL    HW2  620   1.536   0.868   1.374
  170SOL     OW  621   0.072   0.166   0.318
  170SOL    HW1  622   0.055   0.249   0.264
  170SOL    HW2  623   0.162   0.129   0.296
  171SOL     OW  624   1.183   1.335   0.119
  171SOL    HW1  625   1.084   1.324   0.121
  171SOL    HW2  626   1.217   1.350   0.212
  172SOL     OW  627   0.613   0.842   1.431
  172SOL    HW1  628   0.669   0.923   1.414
  172SOL    HW2  629   0.672   0.762   1.434
  173SOL     OW  630   1.493   1.767   0.959
  173SOL    HW1  631   1.526   1.831   0.890
  173SOL    HW2  632   1.559   1.761   1.034
  174SOL     OW  633   0.716   0.565   1.708
  174SOL    HW1  634   0.735   0.630   1.782
  174SOL    HW2  635   0.776   0.485   1.717
  175SOL     OW  636   1.450   1.220   1.633
  175SOL    HW1  637   1.441   1.210   1.732
  175SOL    HW2  638   1.546   1.213   1.607
  176SOL     OW  639   0.390   1.741   1.560
  176SOL    HW1  640   0.299   1.782   1.558
  176SOL    HW2  641   0.383   1.647   1.592
  177SOL     OW  642   1.674   0.883   1.254
  177SOL    HW1  643   1.647   0.794   1.217
  177SOL    HW2  644   1.675   0.951   1.181
  178SOL     OW  645   1.225   0.325   0.449
  178SOL    HW1  646   1.290   0.251   0.438
  178SOL    HW2  647   1.245   0.375   0.533
  179SOL     OW  648   0.594   0.745   0.652
  179SOL    HW1  649   0.644   0.830   0.633
  179SOL    HW2  650   0.506   0.747   0.604
  180SOL     OW  651   1.777   0.342   1.642
  180SOL    HW1  652   1.760   0.373   1.548
  180SOL    HW2  653   1.693   0.305   1.680
  181SOL     OW  654   1.730   0.934   1.517
  181SOL    HW1  655   1.768   1.025   1.532
  181SOL    HW2  656   1.722   0.917   1.418
  182SOL     OW  657   0.859   1.374   0.016
  182SOL    HW1  658   0.813   1.389   0.104
  182SOL    HW2  659   0.903   1.459  -0.014
  183SOL     OW  660   0.661   1.790   0.953
  183SOL    HW1  661   0.615   1.878   0.940
  183SOL    HW2  662   0.760   1.802   0.946
  184SOL     OW  663   0.859   0.956   0.861
  184SOL    HW1  664   0.913   0.887   0.909
  184SOL    HW2  665   0.827   1.025   0.927
  185SOL     OW  666   1.083   0.984   0.087
  185SOL    HW1  667   1.060   1.037   0.005
  185SOL    HW2  668   1.164   0.928   0.068
  186SOL     OW  669   1.861   1.569   0.851
  186SOL    HW1  670   1.790   1.557   0.781
  186SOL    HW2  671   1.862   1.490   0.911
  187SOL     OW  672   0.221   1.314   1.844
  187SOL    HW1  673   0.156   1.241   1.823
  187SOL    HW2  674   0.225   1.328   1.942
  188SOL     OW  675   0.079   1.240   0.653
  188SOL    HW1  676   0.078   1.193   0.741
  188SOL    HW2  677   0.161   1.212   0.602
  189SOL     OW  678   0.672   1.391   1.624
  189SOL    HW1  679   0.594   1.341   1.662
  189SOL    HW2  680   0.669   1.486   1.655
  190SOL     OW  681   1.824   0.192   1.227
  190SOL    HW1  682   1.820   0.102   1.271
  190SOL    HW2  683   1.827   0.181   1.128
  191SOL     OW  684   0.428   0.424   0.520
  191SOL    HW1  685   0.458   0.352   0.458
  191SOL    HW2  686   0.389   0.384   0.603
  192SOL     OW  687   1.705   1.487   1.104
  192SOL    HW1  688   1.612   1.462   1.077
  192SOL    HW2  689   1.731   1.437   1.186
  193SOL     OW  690   0.317   0.547   1.280
  193SOL    HW1  691   0.355   0.488   1.352
  193SOL    HW2  692   0.357   0.521   1.192
  194SOL     OW  693   0.812   1.586   0.687
  194SOL    HW1  694   0.844   1.596   0.593
  194SOL    HW2  695   0.733   1.524   0.689
  195SOL     OW  696   1.424   0.214   1.112
  195SOL    HW1  697   1.476   0.149   1.167
  195SOL    HW2  698   1.375   0.277   1.173
  196SOL     OW  699   1.001   0.034   1.154
  196SOL    HW1  700   0.938  -0.038   1.123
  196SOL    HW2  701   1.094  -0.002   1.154
  197SOL     OW  702   0.770   1.330   0.301
  197SOL    HW1  703   0.724   1.243   0.318
  197SOL    HW2  704   0.861   1.327   0.342
  198SOL     OW  705   0.618   1.567   1.284
  198SOL    HW1  706   0.613   1.649   1.341
  198SOL    HW2  707   0.707   1.564   1.239
  199SOL     OW  708   1.352   0.052   0.168
  199SOL    HW1  709   1.387   0.011   0.084
  199SOL    HW2  710   1.262   0.014   0.188
  200SOL     OW  711   1.300   0.453   0.691
  200SOL    HW1  712   1.241   0.533   0.695
  200SOL    HW2  713   1.315   0.418   0.784
  201SOL     OW  714   1.593   0.221   0.882
  201SOL    HW1  715   1.509   0.220   0.936
  201SOL    HW2  716   1.595   0.304   0.826
  202SOL     OW  717   0.039   1.077   0.300
  202SOL    HW1  718   0.138   1.066   0.291
  202SOL    HW2  719  -0.001   0.991   0.332
  203SOL     OW  720   0.875   1.646   0.337
  203SOL    HW1  721   0.798   1.611   0.283
  203SOL    HW2  722   0.843   1.717   0.399
  204SOL     OW  723   0.230   0.628   1.975
  204SOL    HW1  724   0.137   0.626   2.012
  204SOL    HW2  725   0.231   0.589   1.883
  205SOL     OW  726   0.225   0.275   2.858
  205SOL    HW1  727   0.260   0.258   2.950
  205SOL    HW2  728   0.137   0.230   2.846
  206SOL     OW  729   0.019   0.368   2.509
  206SOL    HW1  730  -0.063   0.411   2.548
  206SOL    HW2  731  -0.009   0.295   2.446
  207SOL     OW  732   0.569   1.275   3.027
  207SOL    HW1  733   0.476   1.268   2.990
  207SOL    HW2  734   0.580   1.364   3.071
  208SOL     OW  735   1.555   1.511   2.565
  208SOL    HW1  736   1.498   1.495   2.646
  208SOL    HW2  737   1.496   1.521   2.485
  209SOL     OW  738   1.135   0.703   2.579
  209SOL    HW1  739   1.192   0.781   2.554
  209SOL    HW2  740   1.075   0.729   2.655
  210SOL     OW  741   1.755   0.607   2.093
  210SOL    HW1  742   1.743   0.594   1.994
  210SOL    HW2  743   1.725   0.526   2.142
  211SOL     OW  744   0.768   1.144   2.885
  211SOL    HW1  745   0.690   1.161   2.945
  211SOL    HW2  746   0.802   1.231   2.849
  212SOL     OW  747   0.685   1.012   2.527
  212SOL    HW1  748   0.754   0.996   2.597
  212SOL    HW2  749   0.612   1.069   2.565
  213SOL     OW  750   0.335   1.435   2.923
  213SOL    HW1  751   0.257   1.404   2.870
  213SOL    HW2  752   0.393   1.493   2.866
  214SOL     OW  753   0.438   0.392   3.361
  214SOL    HW1  754   0.520   0.336   3.370
  214SOL    HW2  755   0.357   0.334   3.365
  215SOL     OW  756   1.603   0.447   2.599
  215SOL    HW1  757   1.529   0.493   2.549
  215SOL    HW2  758   1.654   0.515   2.652
  216SOL     OW  759   0.231   1.713   2.345
  216SOL    HW1  760   0.265   1.790   2.399
  216SOL    HW2  761   0.275   1.713   2.255
  217SOL     OW  762   0.230   1.434   2.400
  217SOL    HW1  763   0.204   1.530   2.400
  217SOL    HW2  764   0.159   1.380   2.445
  218SOL     OW  765   0.240   1.091   2.748
  218SOL    HW1  766   0.254   1.007   2.800
  218SOL    HW2  767   0.185   1.155   2.803
  219SOL     OW  768   0.620   1.786   3.301
  219SOL    HW1  769   0.528   1.769   3.336
  219SOL    HW2  770   0.648   1.878   3.327
  220SOL     OW  771   0.606   0.964   1.985
  220SOL    HW1  772   0.613   1.048   1.931
  220SOL    HW2  773   0.652   0.977   2.073
  221SOL     OW  774   0.122   0.643   2.425
  221SOL    HW1  775   0.077   0.555   2.442
  221SOL    HW2  776   0.121   0.697   2.509
  222SOL     OW  777   1.842   1.767   2.221
  222SOL    HW1  778   1.896   1.738   2.301
  222SOL    HW2  779   1.872   1.857   2.192
  223SOL     OW  780   0.027   1.596   1.979
  223SOL    HW1  781   0.008   1.500   2.000
  223SOL    HW2  782  -0.006   1.654   2.054
  224SOL     OW  783   1.689   0.922   2.474
  224SOL    HW1  784   1.784   0.893   2.482
  224SOL    HW2  785   1.681   0.987   2.399
  225SOL     OW  786   1.641   1.108   2.294
  225SOL    HW1  787   1.727   1.110   2.242
  225SOL    HW2  788   1.655   1.155   2.382
  226SOL     OW  789   0.613   1.365   2.588
  226SOL    HW1  790   0.564   1.278   2.597
  226SOL    HW2  791   0.590   1.408   2.501
  227SOL     OW  792   0.809   0.004   2.364
  227SOL    HW1  793   0.849   0.095   2.355
  227SOL    HW2  794   0.709   0.012   2.370
  228SOL     OW  795   0.197   0.976   3.126
  228SOL    HW1  796   0.286   0.931   3.112
  228SOL    HW2  797   0.124   0.911   3.107
  229SOL     OW  798   1.525   0.999   2.052
  229SOL    HW1  799   1.462   0.923   2.065
  229SOL    HW2  800   1.573   1.017   2.138
  230SOL     OW  801   1.466   1.417   2.815
  230SOL    HW1  802   1.407   1.423   2.895
  230SOL    HW2  803   1.451   1.329   2.769
  231SOL     OW  804   1.667   1.714   2.434
  231SOL    HW1  805   1.626   1.691   2.346
  231SOL    HW2  806   1.649   1.640   2.499
  232SOL     OW  807   0.598   0.729   2.132
  232SOL    HW1  808   0.622   0.798   2.064
  232SOL    HW2  809   0.520   0.762   2.186
  233SOL     OW  810   1.281   0.345   2.806
  233SOL    HW1  811   1.195   0.295   2.793
  233SOL    HW2  812   1.343   0.291   2.862
  234SOL     OW  813   1.576   1.662   2.169
  234SOL    HW1  814   1.665   1.708   2.172
  234SOL    HW2  815   1.555   1.638   2.074
  235SOL     OW  816   0.807   0.605   3.327
  235SOL    HW1  817   0.760   0.602   3.416
  235SOL    HW2  818   0.756   0.550   3.261
  236SOL     OW  819   0.991   0.410   3.104
  236SOL    HW1  820   0.914   0.444   3.158
  236SOL    HW2  821   0.957   0.359   3.025
  237SOL     OW  822   1.041   0.701   2.291
  237SOL    HW1  823   1.067   0.697   2.387
  237SOL    HW2  824   0.956   0.650   2.277
  238SOL     OW  825   0.076   0.811   2.651
  238SOL    HW1  826   0.175   0.799   2.660
  238SOL    HW2  827   0.052   0.906   2.672
  239SOL     OW  828   0.130   1.821   3.433
  239SOL    HW1  829   0.120   1.806   3.532
  239SOL    HW2  830   0.044   1.857   3.397
  240SOL     OW  831   0.865   0.348   2.057
  240SOL    HW1  832   0.924   0.411   2.008
  240SOL    HW2  833   0.884   0.254   2.028
  241SOL     OW  834   1.362   1.144   2.407
  241SOL    HW1  835   1.445   1.115   2.359
  241SOL    HW2  836   1.313   1.211   2.351
  242SOL     OW  837   0.550   0.196   2.747
  242SOL    HW1  838   0.545   0.191   2.847
  242SOL    HW2  839   0.552   0.292   2.718
  243SOL     OW  840   1.008   1.456   2.339
  243SOL    HW1  841   0.962   1.528   2.287
  243SOL    HW2  842   1.004   1.476   2.437
  244SOL     OW  843   0.351   1.801   2.715
  244SOL    HW1  844   0.401   1.715   2.721
  244SOL    HW2  845   0.416   1.878   2.712
  245SOL     OW  846   1.795   1.066   2.735
  245SOL    HW1  847   1.733   1.051   2.659
  245SOL    HW2  848   1.743   1.077   2.820
  246SOL     OW  849   0.321   0.943   2.104
  246SOL    HW1  850   0.403   0.982   2.062
  246SOL    HW2  851   0.294   0.861   2.055
  247SOL     OW  852   1.458   0.735   2.590
  247SOL    HW1  853   1.453   0.670   2.665
  247SOL    HW2  854   1.538   0.794   2.603
  248SOL     OW  855   1.111   1.776   2.099
  248SOL    HW1  856   1.051   1.714   2.149
  248SOL    HW2  857   1.142   1.732   2.014
  249SOL     OW  858   0.464   1.743   2.185
  249SOL    HW1  859   0.497   1.782   2.271
  249SOL    HW2  860   0.540   1.736   2.120
  250SOL     OW  861   1.400   0.107   2.288
  250SOL    HW1  862   1.376   0.070   2.198
  250SOL    HW2  863   1.499   0.123   2.292
  251SOL     OW  864   0.249   1.785   3.103
  251SOL    HW1  865   0.306   1.720   3.153
  251SOL    HW2  866   0.233   1.752   3.010
  252SOL     OW  867   0.940   1.698   2.766
  252SOL    HW1  868   1.020   1.641   2.787
  252SOL    HW2  869   0.891   1.658   2.689
  253SOL     OW  870   0.382   0.700   2.342
  253SOL    HW1  871   0.427   0.610   2.339
  253SOL    HW2  872   0.288   0.689   2.375
  254SOL     OW  873   0.614   0.122   1.979
  254SOL    HW1  874   0.712   0.100   1.986
  254SOL    HW2  875   0.583   0.105   1.886
  255SOL     OW  876   0.888   1.514   3.057
  255SOL    HW1  877   0.865   1.489   2.963
  255SOL    HW2  878   0.949   1.445   3.096
  256SOL     OW  879   0.803   1.402   2.786
  256SOL    HW1  880   0.893   1.416   2.744
  256SOL    HW2  881   0.732   1.404   2.715
  257SOL     OW  882   0.922   0.503   2.761
  257SOL    HW1  883   0.897   0.494   2.665
  257SOL    HW2  884   0.970   0.421   2.792
  258SOL     OW  885   0.539   0.064   2.374
  258SOL    HW1  886   0.458   0.065   2.432
  258SOL    HW2  887   0.542   0.147   2.319
  259SOL     OW  888   0.297   0.035   2.033
  259SOL    HW1  889   0.346   0.119   2.012
  259SOL    HW2  890   0.359  -0.030   2.078
  260SOL     OW  891   0.935   0.236   2.342
  260SOL    HW1  892   0.887   0.277   2.264
  260SOL    HW2  893   1.034   0.234   2.323
  261SOL     OW  894   1.227   1.570   2.655
  261SOL    HW1  895   1.248   1.644   2.590
  261SOL    HW2  896   1.295   1.570   2.728
  262SOL     OW  897   0.459   1.152   2.603
  262SOL    HW1  898   0.388   1.125   2.668
  262SOL    HW2  899   0.433   1.124   2.510
  263SOL     OW  900   1.271   1.797   2.453
  263SOL    HW1  901   1.315   1.861   2.389
  263SOL    HW2  902   1.221   1.849   2.523
  264SOL     OW  903   1.032   0.549   1.878
  264SOL    HW1  904   0.991   0.631   1.839
  264SOL    HW2  905   1.096   0.575   1.951
  265SOL     OW  906   0.078   0.556   3.248
  265SOL    HW1  907   0.170   0.555   3.207
  265SOL    HW2  908   0.072   0.630   3.315
  266SOL     OW  909   0.561   0.222   3.009
  266SOL    HW1  910   0.599   0.138   3.046
  266SOL    HW2  911   0.473   0.241   3.053
  267SOL     OW  912   0.866   0.454   2.504
  267SOL    HW1  913   0.834   0.526   2.442
  267SOL    HW2  914   0.890   0.373   2.451
  268SOL     OW  915   1.017   0.039   2.615
  268SOL    HW1  916   0.945   0.044   2.546
  268SOL    HW2  917   0.993  -0.030   2.684
  269SOL     OW  918   1.429   1.173   2.729
  269SOL    HW1  919   1.374   1.089   2.722
  269SOL    HW2  920   1.455   1.202   2.637
  270SOL     OW  921   1.466   0.590   2.854
  270SOL    HW1  922   1.436   0.495   2.861
  270SOL    HW2  923   1.539   0.606   2.920
  271SOL     OW  924   1.857   0.833   2.239
  271SOL    HW1  925   1.899   0.769   2.303
  271SOL    HW2  926   1.819   0.782   2.161
  272SOL     OW  927   0.488   1.385   2.036
  272SOL    HW1  928   0.401   1.370   2.083
  272SOL    HW2  929   0.471   1.411   1.941
  273SOL     OW  930   1.664   1.280   2.519
  273SOL    HW1  931   1.763   1.288   2.533
  273SOL    HW2  932   1.619   1.364   2.550
  274SOL     OW  933   1.390   0.575   1.940
  274SOL    HW1  934   1.336   0.554   2.021
  274SOL    HW2  935   1.481   0.534   1.949
  275SOL     OW  936   0.527   0.256   2.190
  275SOL    HW1  937   0.554   0.197   2.115
  275SOL    HW2  938   0.527   0.351   2.159
  276SOL     OW  939   1.064   1.347   3.202
  276SOL    HW1  940   0.984   1.324   3.257
  276SOL    HW2  941   1.147   1.321   3.251
  277SOL     OW  942   1.111   1.195   2.962
  277SOL    HW1  943   1.071   1.239   3.043
  277SOL    HW2  944   1.070   1.232   2.879
  278SOL     OW  945   1.638   1.099   2.941
  278SOL    HW1  946   1.643   1.180   3.000
  278SOL    HW2  947   1.552   1.101   2.890
  279SOL     OW  948   0.705   1.050   2.230
  279SOL    HW1  949   0.691   1.057   2.329
  279SOL    HW2  950   0.789   0.999   2.212
  280SOL     OW  951   0.410   0.813   3.113
  280SOL    HW1  952   0.496   0.825   3.163
  280SOL    HW2  953   0.368   0.726   3.140
  281SOL     OW  954   1.274   0.386   3.124
  281SOL    HW1  955   1.295   0.460   3.188
  281SOL    HW2  956   1.185   0.403   3.081
  282SOL     OW  957   0.064   1.564   3.193
  282SOL    HW1  958   0.018   1.646   3.159
  282SOL    HW2  959   0.162   1.583   3.202
  283SOL     OW  960   0.367   1.100   2.363
  283SOL    HW1  961   0.360   1.183   2.307
  283SOL    HW2  962   0.371   1.020   2.303
  284SOL     OW  963   0.566   0.537   2.727
  284SOL    HW1  964   0.578   0.603   2.653
  284SOL    HW2  965   0.612   0.571   2.810
  285SOL     OW  966   1.252   1.348   2.250
  285SOL    HW1  967   1.302   1.425   2.290
  285SOL    HW2  968   1.157   1.350   2.282
  286SOL     OW  969   1.272   1.445   3.004
  286SOL    HW1  970   1.319   1.458   3.091
  286SOL    HW2  971   1.206   1.371   3.013
  287SOL     OW  972   1.582   0.639   2.334
  287SOL    HW1  973   1.551   0.700   2.407
  287SOL    HW2  974   1.632   0.691   2.265
  288SOL     OW  975   0.354   1.510   3.191
  288SOL    HW1  976   0.333   1.466   3.104
  288SOL    HW2  977   0.451   1.536   3.194
  289SOL     OW  978   0.402   0.751   3.460
  289SOL    HW1  979   0.470   0.806   3.413
  289SOL    HW2  980   0.442   0.663   3.487
  290SOL     OW  981   0.573   0.870   2.891
  290SOL    HW1  982   0.617   0.959   2.882
  290SOL    HW2  983   0.510   0.870   2.968
  291SOL     OW  984   1.360   0.862   2.907
  291SOL    HW1  985   1.285   0.862   2.841
  291SOL    HW2  986   1.397   0.770   2.916
  292SOL     OW  987   1.209   0.525   2.137
  292SOL    HW1  988   1.222   0.441   2.191
  292SOL    HW2  989   1.180   0.599   2.197
  293SOL     OW  990   0.307   0.213   3.093
  293SOL    HW1  991   0.284   0.250   3.183
  293SOL    HW2  992   0.277   0.118   3.087
  294SOL     OW  993   0.037   1.310   3.144
  294SOL    HW1  994   0.090   1.261   3.212
  294SOL    HW2  995   0.059   1.408   3.149
  295SOL     OW  996   0.732   0.634   2.926
  295SOL    HW1  997   0.791   0.608   2.850
  295SOL    HW2  998   0.704   0.730   2.915
  296SOL     OW  999   0.307   0.063   2.480
  296SOL    HW1 1000   0.296   0.157   2.513
  296SOL    HW2 1001   0.302   0.000   2.557
  297SOL     OW 1002   1.622   0.367   2.236
  297SOL    HW1 1003   1.624   0.291   2.300
  297SOL    HW2 1004   1.574   0.444   2.276
  298SOL     OW 1005   1.023   0.766   2.828
  298SOL    HW1 1006   1.038   0.787   2.924
  298SOL    HW2 1007   0.993   0.671   2.819
  299SOL     OW 1008   0.980   1.573   3.562
  299SOL    HW1 1009   0.960   1.617   3.474
  299SOL    HW2 1010   1.019   1.482   3.546
  300SOL     OW 1011   1.540   0.274   1.987
  300SOL    HW1 1012   1.479   0.199   2.010
  300SOL    HW2 1013   1.562   0.326   2.070
  301SOL     OW 1014   1.303   0.838   1.904
  301SOL    HW1 1015   1.337   0.745   1.919
  301SOL    HW2 1016   1.321   0.865   1.809
  302SOL     OW 1017   1.068   1.333   2.711
  302SOL    HW1 1018   1.075   1.249   2.656
  302SOL    HW2 1019   1.130   1.402   2.675
  303SOL     OW 1020   0.319   0.810   2.811
  303SOL    HW1 1021   0.412   0.846   2.816
  303SOL    HW2 1022   0.313   0.725   2.863
  304SOL     OW 1023   0.339   0.509   2.868
  304SOL    HW1 1024   0.287   0.426   2.851
  304SOL    HW2 1025   0.416   0.514   2.804
  305SOL     OW 1026   1.160   0.207   3.339
  305SOL    HW1 1027   1.160   0.271   3.416
  305SOL    HW2 1028   1.188   0.255   3.256
  306SOL     OW 1029   0.008   1.326   2.062
  306SOL    HW1 1030  -0.085   1.347   2.031
  306SOL    HW2 1031   0.018   1.227   2.075
  307SOL     OW 1032   0.088   1.801   2.789
  307SOL    HW1 1033   0.046   1.715   2.762
  307SOL    HW2 1034   0.182   1.804   2.755
  308SOL     OW 1035   0.504   1.568   2.772
  308SOL    HW1 1036   0.570   1.642   2.781
  308SOL    HW2 1037   0.548   1.489   2.730
  309SOL     OW 1038   1.002   0.796   3.100
  309SOL    HW1 1039   1.043   0.764   3.186
  309SOL    HW2 1040   0.906   0.769   3.097
  310SOL     OW 1041   0.040   0.544   2.976
  310SOL    HW1 1042   0.125   0.511   2.935
  310SOL    HW2 1043   0.053   0.559   3.074
  311SOL     OW 1044   0.815   0.572   2.187
  311SOL    HW1 1045   0.822   0.483   2.141
  311SOL    HW2 1046   0.721   0.606   2.179
  312SOL     OW 1047   1.657   0.604   3.068
  312SOL    HW1 1048   1.619   0.535   3.130
  312SOL    HW2 1049   1.739   0.568   3.024
  313SOL     OW 1050   0.671   0.464   3.131
  313SOL    HW1 1051   0.637   0.375   3.101
  313SOL    HW2 1052   0.697   0.518   3.051
  314SOL     OW 1053   0.930   1.678   3.327
  314SOL    HW1 1054   0.906   1.660   3.232
  314SOL    HW2 1055   0.960   1.772   3.337
  315SOL     OW 1056   0.473   0.500   2.053
  315SOL    HW1 1057   0.534   0.580   2.057
  315SOL    HW2 1058   0.378   0.531   2.060
  316SOL     OW 1059   0.159   1.137   3.328
  316SOL    HW1 1060   0.181   1.076   3.404
  316SOL    HW2 1061   0.169   1.088   3.242
  317SOL     OW 1062   1.347   1.059   3.096
  317SOL    HW1 1063   1.371   0.996   3.022
  317SOL    HW2 1064   1.257   1.099   3.078
  318SOL     OW 1065   1.302   0.855   2.171
  318SOL    HW1 1066   1.216   0.824   2.213
  318SOL    HW2 1067   1.298   0.841   2.072
  319SOL     OW 1068   1.759   1.747   3.016
  319SOL    HW1 1069   1.820   1.777   2.943
  319SOL    HW2 1070   1.721   1.658   2.994
  320SOL     OW 1071   1.252   1.731   2.990
  320SOL    HW1 1072   1.336   1.736   2.936
  320SOL    HW2 1073   1.229   1.635   3.008
  321SOL     OW 1074   0.083   1.258   2.884
  321SOL    HW1 1075   0.078   1.257   2.984
  321SOL    HW2 1076   0.000   1.217   2.846
  322SOL     OW 1077   1.726   0.135   2.385
  322SOL    HW1 1078   1.799   0.118   2.318
  322SOL    HW2 1079   1.695   0.048   2.423
  323SOL     OW 1080   1.388   1.573   2.339
  323SOL    HW1 1081   1.455   1.585   2.265
  323SOL    HW2 1082   1.348   1.662   2.362
  324SOL     OW 1083   1.280   0.927   2.534
  324SOL    HW1 1084   1.340   0.846   2.536
  324SOL    HW2 1085   1.320   0.996   2.474
  325SOL     OW 1086   0.672   1.616   2.016
  325SOL    HW1 1087   0.681   1.626   1.917
  325SOL    HW2 1088   0.632   1.527   2.037
  326SOL     OW 1089   1.841   0.175   2.825
  326SOL    HW1 1090   1.880   0.090   2.789
  326SOL    HW2 1091   1.743   0.177   2.806
  327SOL     OW 1092   0.263   0.326   2.582
  327SOL    HW1 1093   0.184   0.377   2.548
  327SOL    HW2 1094   0.254   0.311   2.680
  328SOL     OW 1095   0.822   1.002   3.234
  328SOL    HW1 1096   0.862   1.001   3.142
  328SOL    HW2 1097   0.832   1.094   3.274
  329SOL     OW 1098   0.916   0.910   2.153
  329SOL    HW1 1099   0.979   0.948   2.085
  329SOL    HW2 1100   0.956   0.827   2.192
  330SOL     OW 1101   0.372   1.288   3.352
  330SOL    HW1 1102   0.359   1.381   3.318
  330SOL    HW2 1103   0.288   1.236   3.339
  331SOL     OW 1104   1.614   1.292   3.151
  331SOL    HW1 1105   1.674   1.295   3.231
  331SOL    HW2 1106   1.539   1.356   3.164
  332SOL     OW 1107   1.039   1.098   2.558
  332SOL    HW1 1108   0.969   1.051   2.612
  332SOL    HW2 1109   1.098   1.030   2.515
  333SOL     OW 1110   1.014   0.236   2.833
  333SOL    HW1 1111   1.006   0.200   2.740
  333SOL    HW2 1112   1.012   0.160   2.898
  334SOL     OW 1113   0.590   1.487   2.353
  334SOL    HW1 1114   0.632   1.429   2.283
  334SOL    HW2 1115   0.546   1.566   2.309
  335SOL     OW 1116   1.709   0.385   3.243
  335SOL    HW1 1117   1.782   0.454   3.247
  335SOL    HW2 1118   1.737   0.310   3.184
  336SOL     OW 1119   0.255   1.348   2.152
  336SOL    HW1 1120   0.159   1.349   2.125
  336SOL    HW2 1121   0.267   1.401   2.236
  337SOL     OW 1122   0.075   0.345   1.895
  337SOL    HW1 1123  -0.017   0.317   1.866
  337SOL    HW2 1124   0.106   0.422   1.839
  338SOL     OW 1125   0.072   0.166   2.180
  338SOL    HW1 1126   0.055   0.249   2.126
  338SOL    HW2 1127   0.162   0.129   2.158
  339SOL     OW 1128   0.613   0.842   3.293
  339SOL    HW1 1129   0.669   0.923   3.276
  339SOL    HW2 1130   0.672   0.762   3.296
  340SOL     OW 1131   1.493   1.767   2.821
  340SOL    HW1 1132   1.526   1.831   2.752
  340SOL    HW2 1133   1.559   1.761   2.896
  341SOL     OW 1134   0.390   1.741   3.422
  341SOL    HW1 1135   0.299   1.782   3.420
  341SOL    HW2 1136   0.383   1.647   3.454
  342SOL     OW 1137   1.674   0.883   3.116
  342SOL    HW1 1138   1.647   0.794   3.079
  342SOL    HW2 1139   1.675   0.951   3.043
  343SOL     OW 1140   1.225   0.325   2.311
  343SOL    HW1 1141   1.290   0.251   2.300
  343SOL    HW2 1142   1.245   0.375   2.395
  344SOL     OW 1143   0.594   0.745   2.514
  344SOL    HW1 1144   0.644   0.830   2.495
  344SOL    HW2 1145   0.506   0.747   2.466
  345SOL     OW 1146   1.730   0.934   3.379
  345SOL    HW1 1147   1.768   1.025   3.394
  345SOL    HW2 1148   1.722   0.917   3.280
  346SOL     OW 1149   0.859   1.374   1.878
  346SOL    HW1 1150   0.813   1.389   1.966
  346SOL    HW2 1151   0.903   1.459   1.848
  347SOL     OW 1152   0.661   1.790   2.815
  347SOL    HW1 1153   0.615   1.878   2.802
  347SOL    HW2 1154   0.760   1.802   2.808
  348SOL     OW 1155   0.859   0.956   2.723
  348SOL    HW1 1156   0.913   0.887   2.771
  348SOL    HW2 1157   0.827   1.025   2.789
  349SOL     OW 1158   1.083   0.984   1.949
  349SOL    HW1 1159   1.060   1.037   1.867
  349SOL    HW2 1160   1.164   0.928   1.930
  350SOL     OW 1161   1.861   1.569   2.713
  350SOL    HW1 1162   1.790   1.557   2.643
  350SOL    HW2 1163   1.862   1.490   2.773
  351SOL     OW 1164   0.079   1.240   2.515
  351SOL    HW1 1165   0.078   1.193   2.603
  351SOL    HW2 1166   0.161   1.212   2.464
  352SOL     OW 1167   1.824   0.192   3.089
  352SOL    HW1 1168   1.820   0.102   3.133
  352SOL    HW2 1169   1.827   0.181   2.990
  353SOL     OW 1170   0.428   0.424   2.382
  353SOL    HW1 1171   0.458   0.352   2.320
  353SOL    HW2 1172   0.389   0.384   2.465
  354SOL     OW 1173   1.705   1.487   2.966
  354SOL    HW1 1174   1.612   1.462   2.939
  354SOL    HW2 1175   1.731   1.437   3.048
  355SOL     OW 1176   0.317   0.547   3.142
  355SOL    HW1 1177   0.355   0.488   3.214
  355SOL    HW2 1178   0.357   0.521   3.054
  356SOL     OW 1179   0.812   1.586   2.549
  356SOL    HW1 1180   0.844   1.596   2.455
  356SOL    HW2 1181   0.733   1.524   2.551
  357SOL     OW 1182   1.424   0.214   2.974
  357SOL    HW1 1183   1.476   0.149   3.029
  357SOL    HW2 1184   1.375   0.277   3.035
  358SOL     OW 1185   1.001   0.034   3.016
  358SOL    HW1 1186   0.938  -0.038   2.985
  358SOL    HW2 1187   1.094  -0.002   3.016
  359SOL     OW 1188   0.770   1.330   2.163
  359SOL    HW1 1189   0.724   1.243   2.180
  359SOL    HW2 1190   0.861   1.327   2.204
  360SOL     OW 1191   0.618   1.567   3.146
  360SOL    HW1 1192   0.613   1.649   3.203
  360SOL    HW2 1193   0.707   1.564   3.101
  361SOL     OW 1194   1.352   0.052   2.030
  361SOL    HW1 1195   1.387   0.011   1.946
  361SOL    HW2 1196   1.262   0.014   2.050
  362SOL     OW 1197   1.300   0.453   2.553
  362SOL    HW1 1198   1.241   0.533   2.557
  362SOL    HW2 1199   1.315   0.418   2.646
  363SOL     OW 1200   1.593   0.221   2.744
  363SOL    HW1 1201   1.509   0.220   2.798
  363SOL    HW2 1202   1.595   0.304   2.688
  364SOL     OW 1203   0.039   1.077   2.162
  364SOL    HW1 1204   0.138   1.066   2.153
  364SOL    HW2 1205  -0.001   0.991   2.194
  365SOL     OW 1206   0.875   1.646   2.199
  365SOL    HW1 1207   0.798   1.611   2.145
  365SOL    HW2 1208   0.843   1.717   2.261
  366SOL     OW 1209   0.230   2.490   0.113
  366SOL    HW1 1210   0.137   2.488   0.150
  366SOL    HW2 1211   0.231   2.451   0.021
  367SOL     OW 1212   0.225   2.137   0.996
  367SOL    HW1 1213   0.260   2.120   1.088
  367SOL    HW2 1214   0.137   2.092   0.984
  368SOL     OW 1215   0.019   2.230   0.647
  368SOL    HW1 1216  -0.063   2.273   0.686
  368SOL    HW2 1217  -0.009   2.157   0.584
  369SOL     OW 1218   0.569   3.137   1.165
  369SOL    HW1 1219   0.476   3.130   1.128
  369SOL    HW2 1220   0.580   3.226   1.209
  370SOL     OW 1221   1.555   3.373   0.703
  370SOL    HW1 1222   1.498   3.357   0.784
  370SOL    HW2 1223   1.496   3.383   0.623
  371SOL     OW 1224   1.135   2.565   0.717
  371SOL    HW1 1225   1.192   2.643   0.692
  371SOL    HW2 1226   1.075   2.591   0.793
  372SOL     OW 1227   1.755   2.469   0.231
  372SOL    HW1 1228   1.743   2.456   0.132
  372SOL    HW2 1229   1.725   2.388   0.280
  373SOL     OW 1230   0.768   3.006   1.023
  373SOL    HW1 1231   0.690   3.023   1.083
  373SOL    HW2 1232   0.802   3.093   0.987
  374SOL     OW 1233   0.850   2.660   1.823
  374SOL    HW1 1234   0.846   2.736   1.888
  374SOL    HW2 1235   0.872   2.696   1.732
  375SOL     OW 1236   0.685   2.874   0.665
  375SOL    HW1 1237   0.754   2.858   0.735
  375SOL    HW2 1238   0.612   2.931   0.703
  376SOL     OW 1239   0.686   3.023   1.803
  376SOL    HW1 1240   0.746   3.102   1.817
  376SOL    HW2 1241   0.600   3.054   1.762
  377SOL     OW 1242   0.335   3.297   1.061
  377SOL    HW1 1243   0.257   3.266   1.008
  377SOL    HW2 1244   0.393   3.355   1.004
  378SOL     OW 1245   0.438   2.254   1.499
  378SOL    HW1 1246   0.520   2.198   1.508
  378SOL    HW2 1247   0.357   2.196   1.503
  379SOL     OW 1248   1.603   2.309   0.737
  379SOL    HW1 1249   1.529   2.355   0.687
  379SOL    HW2 1250   1.654   2.377   0.790
  380SOL     OW 1251   0.231   3.575   0.483
  380SOL    HW1 1252   0.265   3.652   0.537
  380SOL    HW2 1253   0.275   3.575   0.393
  381SOL     OW 1254   1.127   3.203   1.690
  381SOL    HW1 1255   1.174   3.203   1.778
  381SOL    HW2 1256   1.079   3.116   1.679
  382SOL     OW 1257   0.240   2.953   0.886
  382SOL    HW1 1258   0.254   2.869   0.938
  382SOL    HW2 1259   0.185   3.017   0.941
  383SOL     OW 1260   0.606   2.826   0.123
  383SOL    HW1 1261   0.613   2.910   0.069
  383SOL    HW2 1262   0.652   2.839   0.211
  384SOL     OW 1263   0.122   2.505   0.563
  384SOL    HW1 1264   0.077   2.417   0.580
  384SOL    HW2 1265   0.121   2.559   0.647
  385SOL     OW 1266   1.842   3.629   0.359
  385SOL    HW1 1267   1.896   3.600   0.439
  385SOL    HW2 1268   1.872   3.719   0.330
  386SOL     OW 1269   1.689   2.784   0.612
  386SOL    HW1 1270   1.784   2.755   0.620
  386SOL    HW2 1271   1.681   2.849   0.537
  387SOL     OW 1272   1.641   2.970   0.432
  387SOL    HW1 1273   1.727   2.972   0.380
  387SOL    HW2 1274   1.655   3.017   0.520
  388SOL     OW 1275   0.113   2.599   1.597
  388SOL    HW1 1276   0.201   2.586   1.642
  388SOL    HW2 1277   0.100   2.696   1.575
  389SOL     OW 1278   0.613   3.227   0.726
  389SOL    HW1 1279   0.564   3.140   0.735
  389SOL    HW2 1280   0.590   3.270   0.639
  390SOL     OW 1281   1.293   3.090   1.423
  390SOL    HW1 1282   1.330   3.017   1.365
  390SOL    HW2 1283   1.345   3.095   1.508
  391SOL     OW 1284   0.809   1.866   0.502
  391SOL    HW1 1285   0.849   1.957   0.493
  391SOL    HW2 1286   0.709   1.874   0.508
  392SOL     OW 1287   0.197   2.838   1.264
  392SOL    HW1 1288   0.286   2.793   1.250
  392SOL    HW2 1289   0.124   2.773   1.245
  393SOL     OW 1290   1.525   2.861   0.190
  393SOL    HW1 1291   1.462   2.785   0.203
  393SOL    HW2 1292   1.573   2.879   0.276
  394SOL     OW 1293   0.317   2.113   1.801
  394SOL    HW1 1294   0.388   2.184   1.807
  394SOL    HW2 1295   0.229   2.152   1.829
  395SOL     OW 1296   1.466   3.279   0.953
  395SOL    HW1 1297   1.407   3.285   1.033
  395SOL    HW2 1298   1.451   3.191   0.907
  396SOL     OW 1299   0.598   2.591   0.270
  396SOL    HW1 1300   0.622   2.660   0.202
  396SOL    HW2 1301   0.520   2.624   0.324
  397SOL     OW 1302   1.281   2.207   0.944
  397SOL    HW1 1303   1.195   2.157   0.931
  397SOL    HW2 1304   1.343   2.153   1.000
  398SOL     OW 1305   0.807   2.467   1.465
  398SOL    HW1 1306   0.760   2.464   1.554
  398SOL    HW2 1307   0.756   2.412   1.399
  399SOL     OW 1308   1.394   2.331   1.674
  399SOL    HW1 1309   1.374   2.374   1.762
  399SOL    HW2 1310   1.472   2.269   1.683
  400SOL     OW 1311   0.973   2.752   1.572
  400SOL    HW1 1312   1.019   2.668   1.543
  400SOL    HW2 1313   0.917   2.786   1.497
  401SOL     OW 1314   0.991   2.272   1.242
  401SOL    HW1 1315   0.914   2.306   1.296
  401SOL    HW2 1316   0.957   2.221   1.163
  402SOL     OW 1317   1.041   2.563   0.429
  402SOL    HW1 1318   1.067   2.559   0.525
  402SOL    HW2 1319   0.956   2.512   0.415
  403SOL     OW 1320   0.076   2.673   0.789
  403SOL    HW1 1321   0.175   2.661   0.798
  403SOL    HW2 1322   0.052   2.768   0.810
  404SOL     OW 1323   0.865   2.210   0.195
  404SOL    HW1 1324   0.924   2.273   0.146
  404SOL    HW2 1325   0.884   2.116   0.166
  405SOL     OW 1326   1.719   2.447   1.831
  405SOL    HW1 1327   1.693   2.536   1.795
  405SOL    HW2 1328   1.717   2.379   1.758
  406SOL     OW 1329   1.362   3.006   0.545
  406SOL    HW1 1330   1.445   2.977   0.497
  406SOL    HW2 1331   1.313   3.073   0.489
  407SOL     OW 1332   0.550   2.058   0.885
  407SOL    HW1 1333   0.545   2.053   0.985
  407SOL    HW2 1334   0.552   2.154   0.856
  408SOL     OW 1335   1.008   3.318   0.477
  408SOL    HW1 1336   0.962   3.390   0.425
  408SOL    HW2 1337   1.004   3.338   0.575
  409SOL     OW 1338   1.795   2.928   0.873
  409SOL    HW1 1339   1.733   2.913   0.797
  409SOL    HW2 1340   1.743   2.939   0.958
  410SOL     OW 1341   0.321   2.805   0.242
  410SOL    HW1 1342   0.403   2.844   0.200
  410SOL    HW2 1343   0.294   2.723   0.193
  411SOL     OW 1344   1.458   2.597   0.728
  411SOL    HW1 1345   1.453   2.532   0.803
  411SOL    HW2 1346   1.538   2.656   0.741
  412SOL     OW 1347   0.461   3.128   1.727
  412SOL    HW1 1348   0.411   3.129   1.641
  412SOL    HW2 1349   0.398   3.110   1.803
  413SOL     OW 1350   0.202   2.147   1.498
  413SOL    HW1 1351   0.122   2.207   1.485
  413SOL    HW2 1352   0.192   2.098   1.584
  414SOL     OW 1353   1.632   3.239   0.081
  414SOL    HW1 1354   1.600   3.333   0.071
  414SOL    HW2 1355   1.556   3.176   0.069
  415SOL     OW 1356   1.400   1.969   0.426
  415SOL    HW1 1357   1.376   1.932   0.336
  415SOL    HW2 1358   1.499   1.985   0.430
  416SOL     OW 1359   0.382   2.562   0.480
  416SOL    HW1 1360   0.427   2.472   0.477
  416SOL    HW2 1361   0.288   2.551   0.513
  417SOL     OW 1362   0.781   2.126   1.749
  417SOL    HW1 1363   0.848   2.065   1.792
  417SOL    HW2 1364   0.708   2.145   1.814
  418SOL     OW 1365   1.351   2.452   1.433
  418SOL    HW1 1366   1.379   2.409   1.518
  418SOL    HW2 1367   1.376   2.548   1.434
  419SOL     OW 1368   0.922   2.365   0.899
  419SOL    HW1 1369   0.897   2.356   0.803
  419SOL    HW2 1370   0.970   2.283   0.930
  420SOL     OW 1371   0.539   1.926   0.512
  420SOL    HW1 1372   0.458   1.927   0.570
  420SOL    HW2 1373   0.542   2.009   0.457
  421SOL     OW 1374   1.434   3.050   0.041
  421SOL    HW1 1375   1.466   2.974   0.098
  421SOL    HW2 1376   1.342   3.077   0.071
  422SOL     OW 1377   0.297   1.897   0.171
  422SOL    HW1 1378   0.346   1.981   0.150
  422SOL    HW2 1379   0.359   1.832   0.216
  423SOL     OW 1380   0.935   2.098   0.480
  423SOL    HW1 1381   0.887   2.139   0.402
  423SOL    HW2 1382   1.034   2.096   0.461
  424SOL     OW 1383   1.076   2.545   1.464
  424SOL    HW1 1384   0.996   2.484   1.467
  424SOL    HW2 1385   1.157   2.492   1.440
  425SOL     OW 1386   1.227   3.432   0.793
  425SOL    HW1 1387   1.248   3.506   0.728
  425SOL    HW2 1388   1.295   3.432   0.866
  426SOL     OW 1389   0.459   3.014   0.741
  426SOL    HW1 1390   0.388   2.987   0.806
  426SOL    HW2 1391   0.433   2.986   0.648
  427SOL     OW 1392   1.032   2.411   0.016
  427SOL    HW1 1393   0.991   2.493  -0.023
  427SOL    HW2 1394   1.096   2.437   0.089
  428SOL     OW 1395   0.078   2.418   1.386
  428SOL    HW1 1396   0.170   2.417   1.345
  428SOL    HW2 1397   0.072   2.492   1.453
  429SOL     OW 1398   0.561   2.084   1.147
  429SOL    HW1 1399   0.599   2.000   1.184
  429SOL    HW2 1400   0.473   2.103   1.191
  430SOL     OW 1401   0.866   2.316   0.642
  430SOL    HW1 1402   0.834   2.388   0.580
  430SOL    HW2 1403   0.890   2.235   0.589
  431SOL     OW 1404   1.017   1.901   0.753
  431SOL    HW1 1405   0.945   1.906   0.684
  431SOL    HW2 1406   0.993   1.832   0.822
  432SOL     OW 1407   1.429   3.035   0.867
  432SOL    HW1 1408   1.374   2.951   0.860
  432SOL    HW2 1409   1.455   3.064   0.775
  433SOL     OW 1410   1.466   2.452   0.992
  433SOL    HW1 1411   1.436   2.357   0.999
  433SOL    HW2 1412   1.539   2.468   1.058
  434SOL     OW 1413   1.857   2.695   0.377
  434SOL    HW1 1414   1.899   2.631   0.441
  434SOL    HW2 1415   1.819   2.644   0.299
  435SOL     OW 1416   1.664   3.142   0.657
  435SOL    HW1 1417   1.763   3.150   0.671
  435SOL    HW2 1418   1.619   3.226   0.688
  436SOL     OW 1419   1.390   2.437   0.078
  436SOL    HW1 1420   1.336   2.416   0.159
  436SOL    HW2 1421   1.481   2.396   0.087
  437SOL     OW 1422   0.527   2.118   0.328
  437SOL    HW1 1423   0.554   2.059   0.253
  437SOL    HW2 1424   0.527   2.213   0.297
  438SOL     OW 1425   1.754   3.085   1.588
  438SOL    HW1 1426   1.845   3.046   1.575
  438SOL    HW2 1427   1.762   3.181   1.612
  439SOL     OW 1428   1.064   3.209   1.340
  439SOL    HW1 1429   0.984   3.186   1.395
  439SOL    HW2 1430   1.147   3.183   1.389
  440SOL     OW 1431   1.111   3.057   1.100
  440SOL    HW1 1432   1.071   3.101   1.181
  440SOL    HW2 1433   1.070   3.094   1.017
  441SOL     OW 1434   1.638   2.961   1.079
  441SOL    HW1 1435   1.643   3.042   1.138
  441SOL    HW2 1436   1.552   2.963   1.028
  442SOL     OW 1437   0.915   1.951   1.402
  442SOL    HW1 1438   0.940   1.931   1.307
  442SOL    HW2 1439   0.987   2.007   1.444
  443SOL     OW 1440   0.980   2.978   1.719
  443SOL    HW1 1441   0.881   2.984   1.729
  443SOL    HW2 1442   1.003   2.898   1.663
  444SOL     OW 1443   0.705   2.912   0.368
  444SOL    HW1 1444   0.691   2.919   0.467
  444SOL    HW2 1445   0.789   2.861   0.350
  445SOL     OW 1446   0.410   2.675   1.251
  445SOL    HW1 1447   0.496   2.687   1.301
  445SOL    HW2 1448   0.368   2.588   1.278
  446SOL     OW 1449   1.274   2.248   1.262
  446SOL    HW1 1450   1.295   2.322   1.326
  446SOL    HW2 1451   1.185   2.265   1.219
  447SOL     OW 1452   0.064   3.426   1.331
  447SOL    HW1 1453   0.018   3.508   1.297
  447SOL    HW2 1454   0.162   3.445   1.340
  448SOL     OW 1455   0.367   2.962   0.501
  448SOL    HW1 1456   0.360   3.045   0.445
  448SOL    HW2 1457   0.371   2.882   0.441
  449SOL     OW 1458   0.566   2.399   0.865
  449SOL    HW1 1459   0.578   2.465   0.791
  449SOL    HW2 1460   0.612   2.433   0.948
  450SOL     OW 1461   1.252   3.210   0.388
  450SOL    HW1 1462   1.302   3.287   0.428
  450SOL    HW2 1463   1.157   3.212   0.420
  451SOL     OW 1464   1.272   3.307   1.142
  451SOL    HW1 1465   1.319   3.320   1.229
  451SOL    HW2 1466   1.206   3.233   1.151
  452SOL     OW 1467   1.582   2.501   0.472
  452SOL    HW1 1468   1.551   2.562   0.545
  452SOL    HW2 1469   1.632   2.553   0.403
  453SOL     OW 1470   0.354   3.372   1.329
  453SOL    HW1 1471   0.333   3.328   1.242
  453SOL    HW2 1472   0.451   3.398   1.332
  454SOL     OW 1473   0.402   2.613   1.598
  454SOL    HW1 1474   0.470   2.668   1.551
  454SOL    HW2 1475   0.442   2.525   1.625
  455SOL     OW 1476   1.587   2.641   1.670
  455SOL    HW1 1477   1.495   2.679   1.665
  455SOL    HW2 1478   1.647   2.688   1.605
  456SOL     OW 1479   1.013   1.967   1.770
  456SOL    HW1 1480   1.019   2.052   1.718
  456SOL    HW2 1481   1.045   1.891   1.713
  457SOL     OW 1482   0.504   1.912   1.740
  457SOL    HW1 1483   0.462   1.855   1.670
  457SOL    HW2 1484   0.438   1.981   1.772
  458SOL     OW 1485   0.573   2.732   1.029
  458SOL    HW1 1486   0.617   2.821   1.020
  458SOL    HW2 1487   0.510   2.732   1.106
  459SOL     OW 1488   1.360   2.724   1.045
  459SOL    HW1 1489   1.285   2.724   0.979
  459SOL    HW2 1490   1.397   2.632   1.054
  460SOL     OW 1491   1.209   2.387   0.275
  460SOL    HW1 1492   1.222   2.303   0.329
  460SOL    HW2 1493   1.180   2.461   0.335
  461SOL     OW 1494   0.307   2.075   1.231
  461SOL    HW1 1495   0.284   2.112   1.321
  461SOL    HW2 1496   0.277   1.980   1.225
  462SOL     OW 1497   0.037   3.172   1.282
  462SOL    HW1 1498   0.090   3.123   1.350
  462SOL    HW2 1499   0.059   3.270   1.287
  463SOL     OW 1500   0.732   2.496   1.064
  463SOL    HW1 1501   0.791   2.470   0.988
  463SOL    HW2 1502   0.704   2.592   1.053
  464SOL     OW 1503   1.728   2.797   1.854
  464SOL    HW1 1504   1.682   2.790   1.765
  464SOL    HW2 1505   1.666   2.841   1.920
  465SOL     OW 1506   0.307   1.925   0.618
  465SOL    HW1 1507   0.296   2.019   0.651
  465SOL    HW2 1508   0.302   1.862   0.695
  466SOL     OW 1509   1.622   2.229   0.374
  466SOL    HW1 1510   1.624   2.153   0.438
  466SOL    HW2 1511   1.574   2.306   0.414
  467SOL     OW 1512   1.023   2.628   0.966
  467SOL    HW1 1513   1.038   2.649   1.062
  467SOL    HW2 1514   0.993   2.533   0.957
  468SOL     OW 1515   1.859   3.380   1.605
  468SOL    HW1 1516   1.873   3.407   1.510
  468SOL    HW2 1517   1.942   3.402   1.658
  469SOL     OW 1518   0.350   2.760   1.804
  469SOL    HW1 1519   0.426   2.804   1.852
  469SOL    HW2 1520   0.385   2.713   1.722
  470SOL     OW 1521   1.540   2.136   0.125
  470SOL    HW1 1522   1.479   2.061   0.148
  470SOL    HW2 1523   1.562   2.188   0.208
  471SOL     OW 1524   1.303   2.700   0.042
  471SOL    HW1 1525   1.337   2.607   0.057
  471SOL    HW2 1526   1.321   2.727  -0.053
  472SOL     OW 1527   0.319   2.672   0.949
  472SOL    HW1 1528   0.412   2.708   0.954
  472SOL    HW2 1529   0.313   2.587   1.001
  473SOL     OW 1530   0.339   2.371   1.006
  473SOL    HW1 1531   0.287   2.288   0.989
  473SOL    HW2 1532   0.416   2.376   0.942
  474SOL     OW 1533   1.138   2.242   1.678
  474SOL    HW1 1534   1.093   2.305   1.742
  474SOL    HW2 1535   1.231   2.273   1.661
  475SOL     OW 1536   1.160   2.069   1.477
  475SOL    HW1 1537   1.160   2.133   1.554
  475SOL    HW2 1538   1.188   2.117   1.394
  476SOL     OW 1539   0.008   3.188   0.200
  476SOL    HW1 1540  -0.085   3.209   0.169
  476SOL    HW2 1541   0.018   3.089   0.213
  477SOL     OW 1542   1.002   2.658   1.238
  477SOL    HW1 1543   1.043   2.626   1.324
  477SOL    HW2 1544   0.906   2.631   1.235
  478SOL     OW 1545   0.040   2.406   1.114
  478SOL    HW1 1546   0.125   2.373   1.073
  478SOL    HW2 1547   0.053   2.421   1.212
  479SOL     OW 1548   0.189   2.382   1.722
  479SOL    HW1 1549   0.248   2.342   1.652
  479SOL    HW2 1550   0.131   2.453   1.681
  480SOL     OW 1551   1.369   2.812   1.660
  480SOL    HW1 1552   1.408   2.901   1.680
  480SOL    HW2 1553   1.379   2.792   1.563
  481SOL     OW 1554   0.815   2.434   0.325
  481SOL    HW1 1555   0.822   2.345   0.279
  481SOL    HW2 1556   0.721   2.468   0.317
  482SOL     OW 1557   1.657   2.466   1.206
  482SOL    HW1 1558   1.619   2.397   1.268
  482SOL    HW2 1559   1.739   2.430   1.162
  483SOL     OW 1560   0.252   3.426   1.744
  483SOL    HW1 1561   0.222   3.483   1.820
  483SOL    HW2 1562   0.245   3.329   1.770
  484SOL     OW 1563   0.671   2.326   1.269
  484SOL    HW1 1564   0.637   2.237   1.239
  484SOL    HW2 1565   0.697   2.380   1.189
  485SOL     OW 1566   0.473   2.362   0.191
  485SOL    HW1 1567   0.534   2.442   0.195
  485SOL    HW2 1568   0.378   2.393   0.198
  486SOL     OW 1569   0.159   2.999   1.466
  486SOL    HW1 1570   0.181   2.938   1.542
  486SOL    HW2 1571   0.169   2.950   1.380
  487SOL     OW 1572   1.347   2.921   1.234
  487SOL    HW1 1573   1.371   2.858   1.160
  487SOL    HW2 1574   1.257   2.961   1.216
  488SOL     OW 1575   1.302   2.717   0.309
  488SOL    HW1 1576   1.216   2.686   0.351
  488SOL    HW2 1577   1.298   2.703   0.210
  489SOL     OW 1578   0.083   3.120   1.022
  489SOL    HW1 1579   0.078   3.119   1.122
  489SOL    HW2 1580   0.000   3.079   0.984
  490SOL     OW 1581   0.903   1.948   0.133
  490SOL    HW1 1582   0.954   1.949   0.047
  490SOL    HW2 1583   0.959   1.906   0.204
  491SOL     OW 1584   1.726   1.997   0.523
  491SOL    HW1 1585   1.799   1.980   0.456
  491SOL    HW2 1586   1.695   1.910   0.561
  492SOL     OW 1587   1.280   2.789   0.672
  492SOL    HW1 1588   1.340   2.708   0.674
  492SOL    HW2 1589   1.320   2.858   0.612
  493SOL     OW 1590   0.830   3.135   1.422
  493SOL    HW1 1591   0.825   3.168   1.517
  493SOL    HW2 1592   0.744   3.154   1.376
  494SOL     OW 1593   1.841   2.037   0.963
  494SOL    HW1 1594   1.880   1.952   0.927
  494SOL    HW2 1595   1.743   2.039   0.944
  495SOL     OW 1596   0.263   2.188   0.720
  495SOL    HW1 1597   0.184   2.239   0.686
  495SOL    HW2 1598   0.254   2.173   0.818
  496SOL     OW 1599   0.822   2.864   1.372
  496SOL    HW1 1600   0.862   2.863   1.280
  496SOL    HW2 1601   0.832   2.956   1.412
  497SOL     OW 1602   0.916   2.772   0.291
  497SOL    HW1 1603   0.979   2.810   0.223
  497SOL    HW2 1604   0.956   2.689   0.330
  498SOL     OW 1605   0.372   3.150   1.490
  498SOL    HW1 1606   0.359   3.243   1.456
  498SOL    HW2 1607   0.288   3.098   1.477
  499SOL     OW 1608   1.614   3.154   1.289
  499SOL    HW1 1609   1.674   3.157   1.369
  499SOL    HW2 1610   1.539   3.218   1.302
  500SOL     OW 1611   1.039   2.960   0.696
  500SOL    HW1 1612   0.969   2.913   0.750
  500SOL    HW2 1613   1.098   2.892   0.653
  501SOL     OW 1614   1.014   2.098   0.971
  501SOL    HW1 1615   1.006   2.062   0.878
  501SOL    HW2 1616   1.012   2.022   1.036
  502SOL     OW 1617   0.255   3.210   0.290
  502SOL    HW1 1618   0.159   3.211   0.263
  502SOL    HW2 1619   0.267   3.263   0.374
  503SOL     OW 1620   0.105   2.875   1.726
  503SOL    HW1 1621   0.028   2.842   1.780
  503SOL    HW2 1622   0.190   2.845   1.768
  504SOL     OW 1623   0.672   2.065   1.489
  504SOL    HW1 1624   0.762   2.049   1.449
  504SOL    HW2 1625   0.680   2.070   1.588
  505SOL     OW 1626   0.075   2.207   0.033
  505SOL    HW1 1627  -0.017   2.179   0.004
  505SOL    HW2 1628   0.106   2.284  -0.023
  506SOL     OW 1629   1.440   2.718   1.398
  506SOL    HW1 1630   1.383   2.770   1.335
  506SOL    HW2 1631   1.536   2.730   1.374
  507SOL     OW 1632   0.072   2.028   0.318
  507SOL    HW1 1633   0.055   2.111   0.264
  507SOL    HW2 1634   0.162   1.991   0.296
  508SOL     OW 1635   1.183   3.197   0.119
  508SOL    HW1 1636   1.084   3.186   0.121
  508SOL    HW2 1637   1.217   3.212   0.212
  509SOL     OW 1638   0.613   2.704   1.431
  509SOL    HW1 1639   0.669   2.785   1.414
  509SOL    HW2 1640   0.672   2.624   1.434
  510SOL     OW 1641   0.716   2.427   1.708
  510SOL    HW1 1642   0.735   2.492   1.782
  510SOL    HW2 1643   0.776   2.347   1.717
  511SOL     OW 1644   1.450   3.082   1.633
  511SOL    HW1 1645   1.441   3.072   1.732
  511SOL    HW2 1646   1.546   3.075   1.607
  512SOL     OW 1647   1.674   2.745   1.254
  512SOL    HW1 1648   1.647   2.656   1.217
  512SOL    HW2 1649   1.675   2.813   1.181
  513SOL     OW 1650   1.225   2.187   0.449
  513SOL    HW1 1651   1.290   2.113   0.438
  513SOL    HW2 1652   1.245   2.237   0.533
  514SOL     OW 1653   0.594   2.607   0.652
  514SOL    HW1 1654   0.644   2.692   0.633
  514SOL    HW2 1655   0.506   2.609   0.604
  515SOL     OW 1656   1.777   2.204   1.642
  515SOL    HW1 1657   1.760   2.235   1.548
  515SOL    HW2 1658   1.693   2.167   1.680
  516SOL     OW 1659   1.730   2.796   1.517
  516SOL    HW1 1660   1.768   2.887   1.532
  516SOL    HW2 1661   1.722   2.779   1.418
  517SOL     OW 1662   0.859   3.236   0.016
  517SOL    HW1 1663   0.813   3.251   0.104
  517SOL    HW2 1664   0.903   3.321  -0.014
  518SOL     OW 1665   0.859   2.818   0.861
  518SOL    HW1 1666   0.913   2.749   0.909
  518SOL    HW2 1667   0.827   2.887   0.927
  519SOL     OW 1668   1.083   2.846   0.087
  519SOL    HW1 1669   1.060   2.899   0.005
  519SOL    HW2 1670   1.164   2.790   0.068
  520SOL     OW 1671   0.221   3.176   1.844
  520SOL    HW1 1672   0.156   3.103   1.823
  520SOL    HW2 1673   0.225   3.190   1.942
  521SOL     OW 1674   0.079   3.102   0.653
  521SOL    HW1 1675   0.078   3.055   0.741
  521SOL    HW2 1676   0.161   3.074   0.602
  522SOL     OW 1677   0.672   3.253   1.624
  522SOL    HW1 1678   0.594   3.203   1.662
  522SOL    HW2 1679   0.669   3.348   1.655
  523SOL     OW 1680   0.428   2.286   0.520
  523SOL    HW1 1681   0.458   2.214   0.458
  523SOL    HW2 1682   0.389   2.246   0.603
  524SOL     OW 1683   1.705   3.349   1.104
  524SOL    HW1 1684   1.612   3.324   1.077
  524SOL    HW2 1685   1.731   3.299   1.186
  525SOL     OW 1686   0.317   2.409   1.280
  525SOL    HW1 1687   0.355   2.350   1.352
  525SOL    HW2 1688   0.357   2.383   1.192
  526SOL     OW 1689   0.770   3.192   0.301
  526SOL    HW1 1690   0.724   3.105   0.318
  526SOL    HW2 1691   0.861   3.189   0.342
  527SOL     OW 1692   1.352   1.914   0.168
  527SOL    HW1 1693   1.387   1.873   0.084
  527SOL    HW2 1694   1.262   1.876   0.188
  528SOL     OW 1695   1.300   2.315   0.691
  528SOL    HW1 1696   1.241   2.395   0.695
  528SOL    HW2 1697   1.315   2.280   0.784
  529SOL     OW 1698   1.593   2.083   0.882
  529SOL    HW1 1699   1.509   2.082   0.936
  529SOL    HW2 1700   1.595   2.166   0.826
  530SOL     OW 1701   0.039   2.939   0.300
  530SOL    HW1 1702   0.138   2.928   0.291
  530SOL    HW2 1703  -0.001   2.853   0.332
  531SOL     OW 1704   0.230   2.490   1.975
  531SOL    HW1 1705   0.137   2.488   2.012
  531SOL    HW2 1706   0.231   2.451   1.883
  532SOL     OW 1707   0.225   2.137   2.858
  532SOL    HW1 1708   0.260   2.120   2.950
  532SOL    HW2 1709   0.137   2.092   2.846
  533SOL     OW 1710   0.019   2.230   2.509
  533SOL    HW1 1711  -0.063   2.273   2.548
  533SOL    HW2 1712  -0.009   2.157   2.446
  534SOL     OW 1713   0.569   3.137   3.027
  534SOL    HW1 1714   0.476   3.130   2.990
  534SOL    HW2 1715   0.580   3.226   3.071
  535SOL     OW 1716   1.555   3.373   2.565
  535SOL    HW1 1717   1.498   3.357   2.646
  535SOL    HW2 1718   1.496   3.383   2.485
  536SOL     OW 1719   1.135   2.565   2.579
  536SOL    HW1 1720   1.192   2.643   2.554
  536SOL    HW2 1721   1.075   2.591   2.655
  537SOL     OW 1722   1.755   2.469   2.093
  537SOL    HW1 1723   1.743   2.456   1.994
  537SOL    HW2 1724   1.725   2.388   2.142
  538SOL     OW 1725   0.768   3.006   2.885
  538SOL    HW1 1726   0.690   3.023   2.945
  538SOL    HW2 1727   0.802   3.093   2.849
  539SOL     OW 1728   0.685   2.874   2.527
  539SOL    HW1 1729   0.754   2.858   2.597
  539SOL    HW2 1730   0.612   2.931   2.565
  540SOL     OW 1731   0.335   3.297   2.923
  540SOL    HW1 1732   0.257   3.266   2.870
  540SOL    HW2 1733   0.393   3.355   2.866
  541SOL     OW 1734   1.460   3.367   3.201
  541SOL    HW1 1735   1.484   3.461   3.227
  541SOL    HW2 1736   1.444   3.313   3.283
  542SOL     OW 1737   0.438   2.254   3.361
  542SOL    HW1 1738   0.520   2.198   3.370
  542SOL    HW2 1739   0.357   2.196   3.365
  543SOL     OW 1740   1.603   2.309   2.599
  543SOL    HW1 1741   1.529   2.355   2.549
  543SOL    HW2 1742   1.654   2.377   2.652
  544SOL     OW 1743   0.231   3.575   2.345
  544SOL    HW1 1744   0.265   3.652   2.399
  544SOL    HW2 1745   0.275   3.575   2.255
  545SOL     OW 1746   0.240   2.953   2.748
  545SOL    HW1 1747   0.254   2.869   2.800
  545SOL    HW2 1748   0.185   3.017   2.803
  546SOL     OW 1749   0.606   2.826   1.985
  546SOL    HW1 1750   0.613   2.910   1.931
  546SOL    HW2 1751   0.652   2.839   2.073
  547SOL     OW 1752   0.122   2.505   2.425
  547SOL    HW1 1753   0.077   2.417   2.442
  547SOL    HW2 1754   0.121   2.559   2.509
  548SOL     OW 1755   1.842   3.629   2.221
  548SOL    HW1 1756   1.896   3.600   2.301
  548SOL    HW2 1757   1.872   3.719   2.192
  549SOL     OW 1758   1.689   2.784   2.474
  549SOL    HW1 1759   1.784   2.755   2.482
  549SOL    HW2 1760   1.681   2.849   2.399
  550SOL     OW 1761   1.641   2.970   2.294
  550SOL    HW1 1762   1.727   2.972   2.242
  550SOL    HW2 1763   1.655   3.017   2.382
  551SOL     OW 1764   0.613   3.227   2.588
  551SOL    HW1 1765   0.564   3.140   2.597
  551SOL    HW2 1766   0.590   3.270   2.501
  552SOL     OW 1767   0.809   1.866   2.364
  552SOL    HW1 1768   0.849   1.957   2.355
  552SOL    HW2 1769   0.709   1.874   2.370
  553SOL     OW 1770   0.197   2.838   3.126
  553SOL    HW1 1771   0.286   2.793   3.112
  553SOL    HW2 1772   0.124   2.773   3.107
  554SOL     OW 1773   1.525   2.861   2.052
  554SOL    HW1 1774   1.462   2.785   2.065
  554SOL    HW2 1775   1.573   2.879   2.138
  555SOL     OW 1776   1.466   3.279   2.815
  555SOL    HW1 1777   1.407   3.285   2.895
  555SOL    HW2 1778   1.451   3.191   2.769
  556SOL     OW 1779   0.598   2.591   2.132
  556SOL    HW1 1780   0.622   2.660   2.064
  556SOL    HW2 1781   0.520   2.624   2.186
  557SOL     OW 1782   1.281   2.207   2.806
  557SOL    HW1 1783   1.195   2.157   2.793
  557SOL    HW2 1784   1.343   2.153   2.862
  558SOL     OW 1785   0.807   2.467   3.327
  558SOL    HW1 1786   0.760   2.464   3.416
  558SOL    HW2 1787   0.756   2.412   3.261
  559SOL     OW 1788   0.991   2.272   3.104
  559SOL    HW1 1789   0.914   2.306   3.158
  559SOL    HW2 1790   0.957   2.221   3.025
  560SOL     OW 1791   1.041   2.563   2.291
  560SOL    HW1 1792   1.067   2.559   2.387
  560SOL    HW2 1793   0.956   2.512   2.277
  561SOL     OW 1794   0.076   2.673   2.651
  561SOL    HW1 1795   0.175   2.661   2.660
  561SOL    HW2 1796   0.052   2.768   2.672
  562SOL     OW 1797   0.865   2.210   2.057
  562SOL    HW1 1798   0.924   2.273   2.008
  562SOL    HW2 1799   0.884   2.116   2.028
  563SOL     OW 1800   1.362   3.006   2.407
  563SOL    HW1 1801   1.445   2.977   2.359
  563SOL    HW2 1802   1.313   3.073   2.351
  564SOL     OW 1803   0.550   2.058   2.747
  564SOL    HW1 1804   0.545   2.053   2.847
  564SOL    HW2 1805   0.552   2.154   2.718
  565SOL     OW 1806   1.008   3.318   2.339
  565SOL    HW1 1807   0.962   3.390   2.287
  565SOL    HW2 1808   1.004   3.338   2.437
  566SOL     OW 1809   1.795   2.928   2.735
  566SOL    HW1 1810   1.733   2.913   2.659
  566SOL    HW2 1811   1.743   2.939   2.820
  567SOL     OW 1812   0.321   2.805   2.104
  567SOL    HW1 1813   0.403   2.844   2.062
  567SOL    HW2 1814   0.294   2.723   2.055
  568SOL     OW 1815   1.458   2.597   2.590
  568SOL    HW1 1816   1.453   2.532   2.665
  568SOL    HW2 1817   1.538   2.656   2.603
  569SOL     OW 1818   0.461   3.128   3.589
  569SOL    HW1 1819   0.411   3.129   3.503
  569SOL    HW2 1820   0.398   3.110   3.665
  570SOL     OW 1821   1.111   3.638   2.099
  570SOL    HW1 1822   1.051   3.576   2.149
  570SOL    HW2 1823   1.142   3.594   2.014
  571SOL     OW 1824   1.632   3.239   1.943
  571SOL    HW1 1825   1.600   3.333   1.933
  571SOL    HW2 1826   1.556   3.176   1.931
  572SOL     OW 1827   0.382   2.562   2.342
  572SOL    HW1 1828   0.427   2.472   2.339
  572SOL    HW2 1829   0.288   2.551   2.375
  573SOL     OW 1830   0.614   1.984   1.979
  573SOL    HW1 1831   0.712   1.962   1.986
  573SOL    HW2 1832   0.583   1.967   1.886
  574SOL     OW 1833   0.922   2.365   2.761
  574SOL    HW1 1834   0.897   2.356   2.665
  574SOL    HW2 1835   0.970   2.283   2.792
  575SOL     OW 1836   0.539   1.926   2.374
  575SOL    HW1 1837   0.458   1.927   2.432
  575SOL    HW2 1838   0.542   2.009   2.319
  576SOL     OW 1839   1.434   3.050   1.903
  576SOL    HW1 1840   1.466   2.974   1.960
  576SOL    HW2 1841   1.342   3.077   1.933
  577SOL     OW 1842   0.297   1.897   2.033
  577SOL    HW1 1843   0.346   1.981   2.012
  577SOL    HW2 1844   0.359   1.832   2.078
  578SOL     OW 1845   0.935   2.098   2.342
  578SOL    HW1 1846   0.887   2.139   2.264
  578SOL    HW2 1847   1.034   2.096   2.323
  579SOL     OW 1848   1.227   3.432   2.655
  579SOL    HW1 1849   1.248   3.506   2.590
  579SOL    HW2 1850   1.295   3.432   2.728
  580SOL     OW 1851   0.459   3.014   2.603
  580SOL    HW1 1852   0.388   2.987   2.668
  580SOL    HW2 1853   0.433   2.986   2.510
  581SOL     OW 1854   1.032   2.411   1.878
  581SOL    HW1 1855   0.991   2.493   1.839
  581SOL    HW2 1856   1.096   2.437   1.951
  582SOL     OW 1857   0.078   2.418   3.248
  582SOL    HW1 1858   0.170   2.417   3.207
  582SOL    HW2 1859   0.072   2.492   3.315
  583SOL     OW 1860   0.561   2.084   3.009
  583SOL    HW1 1861   0.599   2.000   3.046
  583SOL    HW2 1862   0.473   2.103   3.053
  584SOL     OW 1863   0.866   2.316   2.504
  584SOL    HW1 1864   0.834   2.388   2.442
  584SOL    HW2 1865   0.890   2.235   2.451
  585SOL     OW 1866   1.017   1.901   2.615
  585SOL    HW1 1867   0.945   1.906   2.546
  585SOL    HW2 1868   0.993   1.832   2.684
  586SOL     OW 1869   1.429   3.035   2.729
  586SOL    HW1 1870   1.374   2.951   2.722
  586SOL    HW2 1871   1.455   3.064   2.637
  587SOL     OW 1872   1.466   2.452   2.854
  587SOL    HW1 1873   1.436   2.357   2.861
  587SOL    HW2 1874   1.539   2.468   2.920
  588SOL     OW 1875   1.857   2.695   2.239
  588SOL    HW1 1876   1.899   2.631   2.303
  588SOL    HW2 1877   1.819   2.644   2.161
  589SOL     OW 1878   1.664   3.142   2.519
  589SOL    HW1 1879   1.763   3.150   2.533
  589SOL    HW2 1880   1.619   3.226   2.550
  590SOL     OW 1881   1.390   2.437   1.940
  590SOL    HW1 1882   1.336   2.416   2.021
  590SOL    HW2 1883   1.481   2.396   1.949
  591SOL     OW 1884   0.527   2.118   2.190
  591SOL    HW1 1885   0.554   2.059   2.115
  591SOL    HW2 1886   0.527   2.213   2.159
  592SOL     OW 1887   1.064   3.209   3.202
  592SOL    HW1 1888   0.984   3.186   3.257
  592SOL    HW2 1889   1.147   3.183   3.251
  593SOL     OW 1890   1.111   3.057   2.962
  593SOL    HW1 1891   1.071   3.101   3.043
  593SOL    HW2 1892   1.070   3.094   2.879
  594SOL     OW 1893   1.638   2.961   2.941
  594SOL    HW1 1894   1.643   3.042   3.000
  594SOL    HW2 1895   1.552   2.963   2.890
  595SOL     OW 1896   0.705   2.912   2.230
  595SOL    HW1 1897   0.691   2.919   2.329
  595SOL    HW2 1898   0.789   2.861   2.212
  596SOL     OW 1899   0.410   2.675   3.113
  596SOL    HW1 1900   0.496   2.687   3.163
  596SOL    HW2 1901   0.368   2.588   3.140
  597SOL     OW 1902   1.274   2.248   3.124
  597SOL    HW1 1903   1.295   2.322   3.188
  597SOL    HW2 1904   1.185   2.265   3.081
  598SOL     OW 1905   0.064   3.426   3.193
  598SOL    HW1 1906   0.018   3.508   3.159
  598SOL    HW2 1907   0.162   3.445   3.202
  599SOL     OW 1908   0.367   2.962   2.363
  599SOL    HW1 1909   0.360   3.045   2.307
  599SOL    HW2 1910   0.371   2.882   2.303
  600SOL     OW 1911   0.566   2.399   2.727
  600SOL    HW1 1912   0.578   2.465   2.653
  600SOL    HW2 1913   0.612   2.433   2.810
  601SOL     OW 1914   1.252   3.210   2.250
  601SOL    HW1 1915   1.302   3.287   2.290
  601SOL    HW2 1916   1.157   3.212   2.282
  602SOL     OW 1917   1.272   3.307   3.004
  602SOL    HW1 1918   1.319   3.320   3.091
  602SOL    HW2 1919   1.206   3.233   3.013
  603SOL     OW 1920   1.582   2.501   2.334
  603SOL    HW1 1921   1.551   2.562   2.407
  603SOL    HW2 1922   1.632   2.553   2.265
  604SOL     OW 1923   0.354   3.372   3.191
  604SOL    HW1 1924   0.333   3.328   3.104
  604SOL    HW2 1925   0.451   3.398   3.194
  605SOL     OW 1926   0.402   2.613   3.460
  605SOL    HW1 1927   0.470   2.668   3.413
  605SOL    HW2 1928   0.442   2.525   3.487
  606SOL     OW 1929   0.573   2.732   2.891
  606SOL    HW1 1930   0.617   2.821   2.882
  606SOL    HW2 1931   0.510   2.732   2.968
  607SOL     OW 1932   1.360   2.724   2.907
  607SOL    HW1 1933   1.285   2.724   2.841
  607SOL    HW2 1934   1.397   2.632   2.916
  608SOL     OW 1935   1.209   2.387   2.137
  608SOL    HW1 1936   1.222   2.303   2.191
  608SOL    HW2 1937   1.180   2.461   2.197
  609SOL     OW 1938   0.307   2.075   3.093
  609SOL    HW1 1939   0.284   2.112   3.183
  609SOL    HW2 1940   0.277   1.980   3.087
  610SOL     OW 1941   0.037   3.172   3.144
  610SOL    HW1 1942   0.090   3.123   3.212
  610SOL    HW2 1943   0.059   3.270   3.149
  611SOL     OW 1944   0.732   2.496   2.926
  611SOL    HW1 1945   0.791   2.470   2.850
  611SOL    HW2 1946   0.704   2.592   2.915
  612SOL     OW 1947   0.307   1.925   2.480
  612SOL    HW1 1948   0.296   2.019   2.513
  612SOL    HW2 1949   0.302   1.862   2.557
  613SOL     OW 1950   1.622   2.229   2.236
  613SOL    HW1 1951   1.624   2.153   2.300
  613SOL    HW2 1952   1.574   2.306   2.276
  614SOL     OW 1953   1.023   2.628   2.828
  614SOL    HW1 1954   1.038   2.649   2.924
  614SOL    HW2 1955   0.993   2.533   2.819
  615SOL     OW 1956   1.303   2.700   1.904
  615SOL    HW1 1957   1.337   2.607   1.919
  615SOL    HW2 1958   1.321   2.727   1.809
  616SOL     OW 1959   0.319   2.672   2.811
  616SOL    HW1 1960   0.412   2.708   2.816
  616SOL    HW2 1961   0.313   2.587   2.863
  617SOL     OW 1962   0.339   2.371   2.868
  617SOL    HW1 1963   0.287   2.288   2.851
  617SOL    HW2 1964   0.416   2.376   2.804
  618SOL     OW 1965   1.160   2.069   3.339
  618SOL    HW1 1966   1.160   2.133   3.416
  618SOL    HW2 1967   1.188   2.117   3.256
  619SOL     OW 1968   0.008   3.188   2.062
  619SOL    HW1 1969  -0.085   3.209   2.031
  619SOL    HW2 1970   0.018   3.089   2.075
  620SOL     OW 1971   1.002   2.658   3.100
  620SOL    HW1 1972   1.043   2.626   3.186
  620SOL    HW2 1973   0.906   2.631   3.097
  621SOL     OW 1974   0.040   2.406   2.976
  621SOL    HW1 1975   0.125   2.373   2.935
  621SOL    HW2 1976   0.053   2.421   3.074
  622SOL     OW 1977   0.815   2.434   2.187
  622SOL    HW1 1978   0.822   2.345   2.141
  622SOL    HW2 1979   0.721   2.468   2.179
  623SOL     OW 1980   1.657   2.466   3.068
  623SOL    HW1 1981   1.619   2.397   3.130
  623SOL    HW2 1982   1.739   2.430   3.024
  624SOL     OW 1983   0.671   2.326   3.131
  624SOL    HW1 1984   0.637   2.237   3.101
  624SOL    HW2 1985   0.697   2.380   3.051
  625SOL     OW 1986   0.473   2.362   2.053
  625SOL    HW1 1987   0.534   2.442   2.057
  625SOL    HW2 1988   0.378   2.393   2.060
  626SOL     OW 1989   0.159   2.999   3.328
  626SOL    HW1 1990   0.181   2.938   3.404
  626SOL    HW2 1991   0.169   2.950   3.242
  627SOL     OW 1992   1.347   2.921   3.096
  627SOL    HW1 1993   1.371   2.858   3.022
  627SOL    HW2 1994   1.257   2.961   3.078
  628SOL     OW 1995   1.302   2.717   2.171
  628SOL    HW1 1996   1.216   2.686   2.213
  628SOL    HW2 1997   1.298   2.703   2.072
  629SOL     OW 1998   0.083   3.120   2.884
  629SOL    HW1 1999   0.078   3.119   2.984
  629SOL    HW2 2000   0.000   3.079   2.846
  630SOL     OW 2001   1.726   1.997   2.385
  630SOL    HW1 2002   1.799   1.980   2.318
  630SOL    HW2 2003   1.695   1.910   2.423
  631SOL     OW 2004   1.280   2.789   2.534
  631SOL    HW1 2005   1.340   2.708   2.536
  631SOL    HW2 2006   1.320   2.858   2.474
  632SOL     OW 2007   1.841   2.037   2.825
  632SOL    HW1 2008   1.880   1.952   2.789
  632SOL    HW2 2009   1.743   2.039   2.806
  633SOL     OW 2010   0.263   2.188   2.582
  633SOL    HW1 2011   0.184   2.239   2.548
  633SOL    HW2 2012   0.254   2.173   2.680
  634SOL     OW 2013   0.822   2.864   3.234
  634SOL    HW1 2014   0.862   2.863   3.142
  634SOL    HW2 2015   0.832   2.956   3.274
  635SOL     OW 2016   0.916   2.772   2.153
  635SOL    HW1 2017   0.979   2.810   2.085
  635SOL    HW2 2018   0.956   2.689   2.192
  636SOL     OW 2019   0.372   3.150   3.352
  636SOL    HW1 2020   0.359   3.243   3.318
  636SOL    HW2 2021   0.288   3.098   3.339
  637SOL     OW 2022   1.614   3.154   3.151
  637SOL    HW1 2023   1.674   3.157   3.231
  637SOL    HW2 2024   1.539   3.218   3.164
  638SOL     OW 2025   1.039   2.960   2.558
  638SOL    HW1 2026   0.969   2.913   2.612
  638SOL    HW2 2027   1.098   2.892   2.515
  639SOL     OW 2028   1.014   2.098   2.833
  639SOL    HW1 2029   1.006   2.062   2.740
  639SOL    HW2 2030   1.012   2.022   2.898
  640SOL     OW 2031   1.709   2.247   3.243
  640SOL    HW1 2032   1.782   2.316   3.247
  640SOL    HW2 2033   1.737   2.172   3.184
  641SOL     OW 2034   0.255   3.210   2.152
  641SOL    HW1 2035   0.159   3.211   2.125
  641SOL    HW2 2036   0.267   3.263   2.236
  642SOL     OW 2037   0.672   2.065   3.351
  642SOL    HW1 2038   0.762   2.049   3.311
  642SOL    HW2 2039   0.680   2.070   3.450
  643SOL     OW 2040   0.075   2.207   1.895
  643SOL    HW1 2041  -0.017   2.179   1.866
  643SOL    HW2 2042   0.106   2.284   1.839
  644SOL     OW 2043   0.072   2.028   2.180
  644SOL    HW1 2044   0.055   2.111   2.126
  644SOL    HW2 2045   0.162   1.991   2.158
  645SOL     OW 2046   1.183   3.197   1.981
  645SOL    HW1 2047   1.084   3.186   1.983
  645SOL    HW2 2048   1.217   3.212   2.074
  646SOL     OW 2049   0.613   2.704   3.293
  646SOL    HW1 2050   0.669   2.785   3.276
  646SOL    HW2 2051   0.672   2.624   3.296
  647SOL     OW 2052   1.674   2.745   3.116
  647SOL    HW1 2053   1.647   2.656   3.079
  647SOL    HW2 2054   1.675   2.813   3.043
  648SOL     OW 2055   1.225   2.187   2.311
  648SOL    HW1 2056   1.290   2.113   2.300
  648SOL    HW2 2057   1.245   2.237   2.395
  649SOL     OW 2058   0.594   2.607   2.514
  649SOL    HW1 2059   0.644   2.692   2.495
  649SOL    HW2 2060   0.506   2.609   2.466
  650SOL     OW 2061   1.730   2.796   3.379
  650SOL    HW1 2062   1.768   2.887   3.394
  650SOL    HW2 2063   1.722   2.779   3.280
  651SOL     OW 2064   0.859   3.236   1.878
  651SOL    HW1 2065   0.813   3.251   1.966
  651SOL    HW2 2066   0.903   3.321   1.848
  652SOL     OW 2067   0.859   2.818   2.723
  652SOL    HW1 2068   0.913   2.749   2.771
  652SOL    HW2 2069   0.827   2.887   2.789
  653SOL     OW 2070   1.083   2.846   1.949
  653SOL    HW1 2071   1.060   2.899   1.867
  653SOL    HW2 2072   1.164   2.790   1.930
  654SOL     OW 2073   0.079   3.102   2.515
  654SOL    HW1 2074   0.078   3.055   2.603
  654SOL    HW2 2075   0.161   3.074   2.464
  655SOL     OW 2076   1.824   2.054   3.089
  655SOL    HW1 2077   1.820   1.964   3.133
  655SOL    HW2 2078   1.827   2.043   2.990
  656SOL     OW 2079   0.428   2.286   2.382
  656SOL    HW1 2080   0.458   2.214   2.320
  656SOL    HW2 2081   0.389   2.246   2.465
  657SOL     OW 2082   1.705   3.349   2.966
  657SOL    HW1 2083   1.612   3.324   2.939
  657SOL    HW2 2084   1.731   3.299   3.048
  658SOL     OW 2085   0.317   2.409   3.142
  658SOL    HW1 2086   0.355   2.350   3.214
  658SOL    HW2 2087   0.357   2.383   3.054
  659SOL     OW 2088   1.424   2.076   2.974
  659SOL    HW1 2089   1.476   2.011   3.029
  659SOL    HW2 2090   1.375   2.139   3.035
  660SOL     OW 2091   1.001   1.896   3.016
  660SOL    HW1 2092   0.938   1.824   2.985
  660SOL    HW2 2093   1.094   1.860   3.016
  661SOL     OW 2094   0.770   3.192   2.163
  661SOL    HW1 2095   0.724   3.105   2.180
  661SOL    HW2 2096   0.861   3.189   2.204
  662SOL     OW 2097   1.300   2.315   2.553
  662SOL    HW1 2098   1.241   2.395   2.557
  662SOL    HW2 2099   1.315   2.280   2.646
  663SOL     OW 2100   1.593   2.083   2.744
  663SOL    HW1 2101   1.509   2.082   2.798
  663SOL    HW2 2102   1.595   2.166   2.688
  664SOL     OW 2103   0.039   2.939   2.162
  664SOL    HW1 2104   0.138   2.928   2.153
  664SOL    HW2 2105  -0.001   2.853   2.194
  665SOL     OW 2106   2.092   0.628   0.113
  665SOL    HW1 2107   1.999   0.626   0.150
  665SOL    HW2 2108   2.093   0.589   0.021
  666SOL     OW 2109   2.087   0.275   0.996
  666SOL    HW1 2110   2.122   0.258   1.088
  666SOL    HW2 2111   1.999   0.230   0.984
  667SOL     OW 2112   1.881   0.368   0.647
  667SOL    HW1 2113   1.799   0.411   0.686
  667SOL    HW2 2114   1.853   0.295   0.584
  668SOL     OW 2115   2.431   1.275   1.165
  668SOL    HW1 2116   2.338   1.268   1.128
  668SOL    HW2 2117   2.442   1.364   1.209
  669SOL     OW 2118   3.417   1.511   0.703
  669SOL    HW1 2119   3.360   1.495   0.784
  669SOL    HW2 2120   3.358   1.521   0.623
  670SOL     OW 2121   2.997   0.703   0.717
  670SOL    HW1 2122   3.054   0.781   0.692
  670SOL    HW2 2123   2.937   0.729   0.793
  671SOL     OW 2124   2.630   1.144   1.023
  671SOL    HW1 2125   2.552   1.161   1.083
  671SOL    HW2 2126   2.664   1.231   0.987
  672SOL     OW 2127   2.712   0.798   1.823
  672SOL    HW1 2128   2.708   0.874   1.888
  672SOL    HW2 2129   2.734   0.834   1.732
  673SOL     OW 2130   2.547   1.012   0.665
  673SOL    HW1 2131   2.616   0.996   0.735
  673SOL    HW2 2132   2.474   1.069   0.703
  674SOL     OW 2133   2.548   1.161   1.803
  674SOL    HW1 2134   2.608   1.240   1.817
  674SOL    HW2 2135   2.462   1.192   1.762
  675SOL     OW 2136   2.197   1.435   1.061
  675SOL    HW1 2137   2.119   1.404   1.008
  675SOL    HW2 2138   2.255   1.493   1.004
  676SOL     OW 2139   2.300   0.392   1.499
  676SOL    HW1 2140   2.382   0.336   1.508
  676SOL    HW2 2141   2.219   0.334   1.503
  677SOL     OW 2142   2.093   1.713   0.483
  677SOL    HW1 2143   2.127   1.790   0.537
  677SOL    HW2 2144   2.137   1.713   0.393
  678SOL     OW 2145   2.989   1.341   1.690
  678SOL    HW1 2146   3.036   1.341   1.778
  678SOL    HW2 2147   2.941   1.254   1.679
  679SOL     OW 2148   2.092   1.434   0.538
  679SOL    HW1 2149   2.066   1.530   0.538
  679SOL    HW2 2150   2.021   1.380   0.583
  680SOL     OW 2151   2.102   1.091   0.886
  680SOL    HW1 2152   2.116   1.007   0.938
  680SOL    HW2 2153   2.047   1.155   0.941
  681SOL     OW 2154   2.482   1.786   1.439
  681SOL    HW1 2155   2.390   1.769   1.474
  681SOL    HW2 2156   2.510   1.878   1.465
  682SOL     OW 2157   2.468   0.964   0.123
  682SOL    HW1 2158   2.475   1.048   0.069
  682SOL    HW2 2159   2.514   0.977   0.211
  683SOL     OW 2160   1.984   0.643   0.563
  683SOL    HW1 2161   1.939   0.555   0.580
  683SOL    HW2 2162   1.983   0.697   0.647
  684SOL     OW 2163   1.889   1.596   0.117
  684SOL    HW1 2164   1.870   1.500   0.138
  684SOL    HW2 2165   1.856   1.654   0.192
  685SOL     OW 2166   3.551   0.922   0.612
  685SOL    HW1 2167   3.646   0.893   0.620
  685SOL    HW2 2168   3.543   0.987   0.537
  686SOL     OW 2169   1.975   0.737   1.597
  686SOL    HW1 2170   2.063   0.724   1.642
  686SOL    HW2 2171   1.962   0.834   1.575
  687SOL     OW 2172   2.475   1.365   0.726
  687SOL    HW1 2173   2.426   1.278   0.735
  687SOL    HW2 2174   2.452   1.408   0.639
  688SOL     OW 2175   3.155   1.228   1.423
  688SOL    HW1 2176   3.192   1.155   1.365
  688SOL    HW2 2177   3.207   1.233   1.508
  689SOL     OW 2178   2.671   0.004   0.502
  689SOL    HW1 2179   2.711   0.095   0.493
  689SOL    HW2 2180   2.571   0.012   0.508
  690SOL     OW 2181   2.059   0.976   1.264
  690SOL    HW1 2182   2.148   0.931   1.250
  690SOL    HW2 2183   1.986   0.911   1.245
  691SOL     OW 2184   3.049   1.792   1.616
  691SOL    HW1 2185   3.073   1.852   1.540
  691SOL    HW2 2186   3.056   1.697   1.586
  692SOL     OW 2187   2.179   0.251   1.801
  692SOL    HW1 2188   2.250   0.322   1.807
  692SOL    HW2 2189   2.091   0.290   1.829
  693SOL     OW 2190   3.328   1.417   0.953
  693SOL    HW1 2191   3.269   1.423   1.033
  693SOL    HW2 2192   3.313   1.329   0.907
  694SOL     OW 2193   2.460   0.729   0.270
  694SOL    HW1 2194   2.484   0.798   0.202
  694SOL    HW2 2195   2.382   0.762   0.324
  695SOL     OW 2196   3.143   0.345   0.944
  695SOL    HW1 2197   3.057   0.295   0.931
  695SOL    HW2 2198   3.205   0.291   1.000
  696SOL     OW 2199   2.669   0.605   1.465
  696SOL    HW1 2200   2.622   0.602   1.554
  696SOL    HW2 2201   2.618   0.550   1.399
  697SOL     OW 2202   3.256   0.469   1.674
  697SOL    HW1 2203   3.236   0.512   1.762
  697SOL    HW2 2204   3.334   0.407   1.683
  698SOL     OW 2205   2.835   0.890   1.572
  698SOL    HW1 2206   2.881   0.806   1.543
  698SOL    HW2 2207   2.779   0.924   1.497
  699SOL     OW 2208   2.853   0.410   1.242
  699SOL    HW1 2209   2.776   0.444   1.296
  699SOL    HW2 2210   2.819   0.359   1.163
  700SOL     OW 2211   2.903   0.701   0.429
  700SOL    HW1 2212   2.929   0.697   0.525
  700SOL    HW2 2213   2.818   0.650   0.415
  701SOL     OW 2214   1.938   0.811   0.789
  701SOL    HW1 2215   2.037   0.799   0.798
  701SOL    HW2 2216   1.914   0.906   0.810
  702SOL     OW 2217   2.727   0.348   0.195
  702SOL    HW1 2218   2.786   0.411   0.146
  702SOL    HW2 2219   2.746   0.254   0.166
  703SOL     OW 2220   3.224   1.144   0.545
  703SOL    HW1 2221   3.307   1.115   0.497
  703SOL    HW2 2222   3.175   1.211   0.489
  704SOL     OW 2223   2.412   0.196   0.885
  704SOL    HW1 2224   2.407   0.191   0.985
  704SOL    HW2 2225   2.414   0.292   0.856
  705SOL     OW 2226   2.870   1.456   0.477
  705SOL    HW1 2227   2.824   1.528   0.425
  705SOL    HW2 2228   2.866   1.476   0.575
  706SOL     OW 2229   2.213   1.801   0.853
  706SOL    HW1 2230   2.263   1.715   0.859
  706SOL    HW2 2231   2.278   1.878   0.850
  707SOL     OW 2232   3.089   1.550   1.506
  707SOL    HW1 2233   3.095   1.473   1.570
  707SOL    HW2 2234   3.037   1.524   1.426
  708SOL     OW 2235   2.183   0.943   0.242
  708SOL    HW1 2236   2.265   0.982   0.200
  708SOL    HW2 2237   2.156   0.861   0.193
  709SOL     OW 2238   2.973   1.776   0.237
  709SOL    HW1 2239   2.913   1.714   0.287
  709SOL    HW2 2240   3.004   1.732   0.152
  710SOL     OW 2241   2.064   0.285   1.498
  710SOL    HW1 2242   1.984   0.345   1.485
  710SOL    HW2 2243   2.054   0.236   1.584
  711SOL     OW 2244   2.326   1.743   0.323
  711SOL    HW1 2245   2.359   1.782   0.409
  711SOL    HW2 2246   2.402   1.736   0.258
  712SOL     OW 2247   2.802   1.698   0.904
  712SOL    HW1 2248   2.882   1.641   0.925
  712SOL    HW2 2249   2.753   1.658   0.827
  713SOL     OW 2250   2.244   0.700   0.480
  713SOL    HW1 2251   2.289   0.610   0.477
  713SOL    HW2 2252   2.150   0.689   0.513
  714SOL     OW 2253   2.476   0.122   0.117
  714SOL    HW1 2254   2.574   0.100   0.124
  714SOL    HW2 2255   2.445   0.105   0.024
  715SOL     OW 2256   2.643   0.264   1.749
  715SOL    HW1 2257   2.710   0.203   1.792
  715SOL    HW2 2258   2.570   0.283   1.814
  716SOL     OW 2259   2.750   1.514   1.195
  716SOL    HW1 2260   2.727   1.489   1.101
  716SOL    HW2 2261   2.811   1.445   1.234
  717SOL     OW 2262   3.213   0.590   1.433
  717SOL    HW1 2263   3.241   0.547   1.518
  717SOL    HW2 2264   3.238   0.686   1.434
  718SOL     OW 2265   2.665   1.402   0.924
  718SOL    HW1 2266   2.755   1.416   0.882
  718SOL    HW2 2267   2.594   1.404   0.853
  719SOL     OW 2268   2.784   0.503   0.899
  719SOL    HW1 2269   2.759   0.494   0.803
  719SOL    HW2 2270   2.832   0.421   0.930
  720SOL     OW 2271   2.401   0.064   0.512
  720SOL    HW1 2272   2.320   0.065   0.570
  720SOL    HW2 2273   2.404   0.147   0.457
  721SOL     OW 2274   3.296   1.188   0.041
  721SOL    HW1 2275   3.328   1.112   0.098
  721SOL    HW2 2276   3.204   1.215   0.071
  722SOL     OW 2277   2.159   0.035   0.171
  722SOL    HW1 2278   2.208   0.119   0.150
  722SOL    HW2 2279   2.221  -0.030   0.216
  723SOL     OW 2280   2.797   0.236   0.480
  723SOL    HW1 2281   2.749   0.277   0.402
  723SOL    HW2 2282   2.896   0.234   0.461
  724SOL     OW 2283   2.938   0.683   1.464
  724SOL    HW1 2284   2.858   0.622   1.467
  724SOL    HW2 2285   3.019   0.630   1.440
  725SOL     OW 2286   3.089   1.570   0.793
  725SOL    HW1 2287   3.110   1.644   0.728
  725SOL    HW2 2288   3.157   1.570   0.866
  726SOL     OW 2289   2.321   1.152   0.741
  726SOL    HW1 2290   2.250   1.125   0.806
  726SOL    HW2 2291   2.295   1.124   0.648
  727SOL     OW 2292   3.133   1.797   0.591
  727SOL    HW1 2293   3.177   1.861   0.527
  727SOL    HW2 2294   3.083   1.849   0.661
  728SOL     OW 2295   2.894   0.549   0.016
  728SOL    HW1 2296   2.853   0.631  -0.023
  728SOL    HW2 2297   2.958   0.575   0.089
  729SOL     OW 2298   1.940   0.556   1.386
  729SOL    HW1 2299   2.032   0.555   1.345
  729SOL    HW2 2300   1.934   0.630   1.453
  730SOL     OW 2301   2.423   0.222   1.147
  730SOL    HW1 2302   2.461   0.138   1.184
  730SOL    HW2 2303   2.335   0.241   1.191
  731SOL     OW 2304   2.728   0.454   0.642
  731SOL    HW1 2305   2.696   0.526   0.580
  731SOL    HW2 2306   2.752   0.373   0.589
  732SOL     OW 2307   2.879   0.039   0.753
  732SOL    HW1 2308   2.807   0.044   0.684
  732SOL    HW2 2309   2.855  -0.030   0.822
  733SOL     OW 2310   2.350   1.385   0.174
  733SOL    HW1 2311   2.263   1.370   0.221
  733SOL    HW2 2312   2.333   1.411   0.079
  734SOL     OW 2313   3.252   0.575   0.078
  734SOL    HW1 2314   3.198   0.554   0.159
  734SOL    HW2 2315   3.343   0.534   0.087
  735SOL     OW 2316   2.389   0.256   0.328
  735SOL    HW1 2317   2.416   0.197   0.253
  735SOL    HW2 2318   2.389   0.351   0.297
  736SOL     OW 2319   2.926   1.347   1.340
  736SOL    HW1 2320   2.846   1.324   1.395
  736SOL    HW2 2321   3.009   1.321   1.389
  737SOL     OW 2322   2.973   1.195   1.100
  737SOL    HW1 2323   2.933   1.239   1.181
  737SOL    HW2 2324   2.932   1.232   1.017
  738SOL     OW 2325   2.777   0.089   1.402
  738SOL    HW1 2326   2.802   0.069   1.307
  738SOL    HW2 2327   2.849   0.145   1.444
  739SOL     OW 2328   2.842   1.116   1.719
  739SOL    HW1 2329   2.743   1.122   1.729
  739SOL    HW2 2330   2.865   1.036   1.663
  740SOL     OW 2331   2.567   1.050   0.368
  740SOL    HW1 2332   2.553   1.057   0.467
  740SOL    HW2 2333   2.651   0.999   0.350
  741SOL     OW 2334   2.272   0.813   1.251
  741SOL    HW1 2335   2.358   0.825   1.301
  741SOL    HW2 2336   2.230   0.726   1.278
  742SOL     OW 2337   3.136   0.386   1.262
  742SOL    HW1 2338   3.157   0.460   1.326
  742SOL    HW2 2339   3.047   0.403   1.219
  743SOL     OW 2340   2.229   1.100   0.501
  743SOL    HW1 2341   2.222   1.183   0.445
  743SOL    HW2 2342   2.233   1.020   0.441
  744SOL     OW 2343   2.428   0.537   0.865
  744SOL    HW1 2344   2.440   0.603   0.791
  744SOL    HW2 2345   2.474   0.571   0.948
  745SOL     OW 2346   3.114   1.348   0.388
  745SOL    HW1 2347   3.164   1.425   0.428
  745SOL    HW2 2348   3.019   1.350   0.420
  746SOL     OW 2349   3.134   1.445   1.142
  746SOL    HW1 2350   3.181   1.458   1.229
  746SOL    HW2 2351   3.068   1.371   1.151
  747SOL     OW 2352   2.264   0.751   1.598
  747SOL    HW1 2353   2.332   0.806   1.551
  747SOL    HW2 2354   2.304   0.663   1.625
  748SOL     OW 2355   2.875   0.105   1.770
  748SOL    HW1 2356   2.881   0.190   1.718
  748SOL    HW2 2357   2.907   0.029   1.713
  749SOL     OW 2358   2.366   0.050   1.740
  749SOL    HW1 2359   2.324  -0.007   1.670
  749SOL    HW2 2360   2.300   0.119   1.772
  750SOL     OW 2361   2.435   0.870   1.029
  750SOL    HW1 2362   2.479   0.959   1.020
  750SOL    HW2 2363   2.372   0.870   1.106
  751SOL     OW 2364   3.222   0.862   1.045
  751SOL    HW1 2365   3.147   0.862   0.979
  751SOL    HW2 2366   3.259   0.770   1.054
  752SOL     OW 2367   3.071   0.525   0.275
  752SOL    HW1 2368   3.084   0.441   0.329
  752SOL    HW2 2369   3.042   0.599   0.335
  753SOL     OW 2370   2.169   0.213   1.231
  753SOL    HW1 2371   2.146   0.250   1.321
  753SOL    HW2 2372   2.139   0.118   1.225
  754SOL     OW 2373   2.594   0.634   1.064
  754SOL    HW1 2374   2.653   0.608   0.988
  754SOL    HW2 2375   2.566   0.730   1.053
  755SOL     OW 2376   2.169   0.063   0.618
  755SOL    HW1 2377   2.158   0.157   0.651
  755SOL    HW2 2378   2.164   0.000   0.695
  756SOL     OW 2379   2.885   0.766   0.966
  756SOL    HW1 2380   2.900   0.787   1.062
  756SOL    HW2 2381   2.855   0.671   0.957
  757SOL     OW 2382   2.842   1.573   1.700
  757SOL    HW1 2383   2.822   1.617   1.612
  757SOL    HW2 2384   2.881   1.482   1.684
  758SOL     OW 2385   2.212   0.898   1.804
  758SOL    HW1 2386   2.288   0.942   1.852
  758SOL    HW2 2387   2.247   0.851   1.722
  759SOL     OW 2388   3.165   0.838   0.042
  759SOL    HW1 2389   3.199   0.745   0.057
  759SOL    HW2 2390   3.183   0.865  -0.053
  760SOL     OW 2391   2.930   1.333   0.849
  760SOL    HW1 2392   2.937   1.249   0.794
  760SOL    HW2 2393   2.992   1.402   0.813
  761SOL     OW 2394   2.181   0.810   0.949
  761SOL    HW1 2395   2.274   0.846   0.954
  761SOL    HW2 2396   2.175   0.725   1.001
  762SOL     OW 2397   2.201   0.509   1.006
  762SOL    HW1 2398   2.149   0.426   0.989
  762SOL    HW2 2399   2.278   0.514   0.942
  763SOL     OW 2400   3.000   0.380   1.678
  763SOL    HW1 2401   2.955   0.443   1.742
  763SOL    HW2 2402   3.093   0.411   1.661
  764SOL     OW 2403   3.022   0.207   1.477
  764SOL    HW1 2404   3.022   0.271   1.554
  764SOL    HW2 2405   3.050   0.255   1.394
  765SOL     OW 2406   1.870   1.326   0.200
  765SOL    HW1 2407   1.777   1.347   0.169
  765SOL    HW2 2408   1.880   1.227   0.213
  766SOL     OW 2409   1.950   1.801   0.927
  766SOL    HW1 2410   1.908   1.715   0.900
  766SOL    HW2 2411   2.044   1.804   0.893
  767SOL     OW 2412   2.366   1.568   0.910
  767SOL    HW1 2413   2.432   1.642   0.919
  767SOL    HW2 2414   2.410   1.489   0.868
  768SOL     OW 2415   2.864   0.796   1.238
  768SOL    HW1 2416   2.905   0.764   1.324
  768SOL    HW2 2417   2.768   0.769   1.235
  769SOL     OW 2418   1.902   0.544   1.114
  769SOL    HW1 2419   1.987   0.511   1.073
  769SOL    HW2 2420   1.915   0.559   1.212
  770SOL     OW 2421   2.051   0.520   1.722
  770SOL    HW1 2422   2.110   0.480   1.652
  770SOL    HW2 2423   1.993   0.591   1.681
  771SOL     OW 2424   3.231   0.950   1.660
  771SOL    HW1 2425   3.270   1.039   1.680
  771SOL    HW2 2426   3.241   0.930   1.563
  772SOL     OW 2427   2.677   0.572   0.325
  772SOL    HW1 2428   2.684   0.483   0.279
  772SOL    HW2 2429   2.583   0.606   0.317
  773SOL     OW 2430   2.533   0.464   1.269
  773SOL    HW1 2431   2.499   0.375   1.239
  773SOL    HW2 2432   2.559   0.518   1.189
  774SOL     OW 2433   2.792   1.678   1.465
  774SOL    HW1 2434   2.768   1.660   1.370
  774SOL    HW2 2435   2.822   1.772   1.475
  775SOL     OW 2436   2.335   0.500   0.191
  775SOL    HW1 2437   2.396   0.580   0.195
  775SOL    HW2 2438   2.240   0.531   0.198
  776SOL     OW 2439   2.021   1.137   1.466
  776SOL    HW1 2440   2.043   1.076   1.542
  776SOL    HW2 2441   2.031   1.088   1.380
  777SOL     OW 2442   3.209   1.059   1.234
  777SOL    HW1 2443   3.233   0.996   1.160
  777SOL    HW2 2444   3.119   1.099   1.216
  778SOL     OW 2445   3.164   0.855   0.309
  778SOL    HW1 2446   3.078   0.824   0.351
  778SOL    HW2 2447   3.160   0.841   0.210
  779SOL     OW 2448   3.114   1.731   1.128
  779SOL    HW1 2449   3.198   1.736   1.074
  779SOL    HW2 2450   3.091   1.635   1.146
  780SOL     OW 2451   1.945   1.258   1.022
  780SOL    HW1 2452   1.940   1.257   1.122
  780SOL    HW2 2453   1.862   1.217   0.984
  781SOL     OW 2454   2.550   1.662   1.716
  781SOL    HW1 2455   2.494   1.743   1.725
  781SOL    HW2 2456   2.602   1.666   1.630
  782SOL     OW 2457   2.765   0.086   0.133
  782SOL    HW1 2458   2.816   0.087   0.047
  782SOL    HW2 2459   2.821   0.044   0.204
  783SOL     OW 2460   3.250   1.573   0.477
  783SOL    HW1 2461   3.317   1.585   0.403
  783SOL    HW2 2462   3.210   1.662   0.500
  784SOL     OW 2463   3.142   0.927   0.672
  784SOL    HW1 2464   3.202   0.846   0.674
  784SOL    HW2 2465   3.182   0.996   0.612
  785SOL     OW 2466   2.692   1.273   1.422
  785SOL    HW1 2467   2.687   1.306   1.517
  785SOL    HW2 2468   2.606   1.292   1.376
  786SOL     OW 2469   2.534   1.616   0.154
  786SOL    HW1 2470   2.543   1.626   0.055
  786SOL    HW2 2471   2.494   1.527   0.175
  787SOL     OW 2472   2.125   0.326   0.720
  787SOL    HW1 2473   2.046   0.377   0.686
  787SOL    HW2 2474   2.116   0.311   0.818
  788SOL     OW 2475   3.056   1.612   0.031
  788SOL    HW1 2476   3.062   1.519   0.068
  788SOL    HW2 2477   2.997   1.612  -0.049
  789SOL     OW 2478   2.684   1.002   1.372
  789SOL    HW1 2479   2.724   1.001   1.280
  789SOL    HW2 2480   2.694   1.094   1.412
  790SOL     OW 2481   2.778   0.910   0.291
  790SOL    HW1 2482   2.841   0.948   0.223
  790SOL    HW2 2483   2.818   0.827   0.330
  791SOL     OW 2484   2.234   1.288   1.490
  791SOL    HW1 2485   2.221   1.381   1.456
  791SOL    HW2 2486   2.150   1.236   1.477
  792SOL     OW 2487   2.901   1.098   0.696
  792SOL    HW1 2488   2.831   1.051   0.750
  792SOL    HW2 2489   2.960   1.030   0.653
  793SOL     OW 2490   2.876   0.236   0.971
  793SOL    HW1 2491   2.868   0.200   0.878
  793SOL    HW2 2492   2.874   0.160   1.036
  794SOL     OW 2493   2.452   1.487   0.491
  794SOL    HW1 2494   2.494   1.429   0.421
  794SOL    HW2 2495   2.408   1.566   0.447
  795SOL     OW 2496   2.117   1.348   0.290
  795SOL    HW1 2497   2.021   1.349   0.263
  795SOL    HW2 2498   2.129   1.401   0.374
  796SOL     OW 2499   1.967   1.013   1.726
  796SOL    HW1 2500   1.890   0.980   1.780
  796SOL    HW2 2501   2.052   0.983   1.768
  797SOL     OW 2502   2.534   0.203   1.489
  797SOL    HW1 2503   2.624   0.187   1.449
  797SOL    HW2 2504   2.542   0.208   1.588
  798SOL     OW 2505   1.937   0.345   0.033
  798SOL    HW1 2506   1.845   0.317   0.004
  798SOL    HW2 2507   1.968   0.422  -0.023
  799SOL     OW 2508   3.302   0.856   1.398
  799SOL    HW1 2509   3.245   0.908   1.335
  799SOL    HW2 2510   3.398   0.868   1.374
  800SOL     OW 2511   3.045   1.335   0.119
  800SOL    HW1 2512   2.946   1.324   0.121
  800SOL    HW2 2513   3.079   1.350   0.212
  801SOL     OW 2514   2.475   0.842   1.431
  801SOL    HW1 2515   2.531   0.923   1.414
  801SOL    HW2 2516   2.534   0.762   1.434
  802SOL     OW 2517   2.578   0.565   1.708
  802SOL    HW1 2518   2.597   0.630   1.782
  802SOL    HW2 2519   2.638   0.485   1.717
  803SOL     OW 2520   3.312   1.220   1.633
  803SOL    HW1 2521   3.303   1.210   1.732
  803SOL    HW2 2522   3.408   1.213   1.607
  804SOL     OW 2523   3.087   0.325   0.449
  804SOL    HW1 2524   3.152   0.251   0.438
  804SOL    HW2 2525   3.107   0.375   0.533
  805SOL     OW 2526   2.456   0.745   0.652
  805SOL    HW1 2527   2.506   0.830   0.633
  805SOL    HW2 2528   2.368   0.747   0.604
  806SOL     OW 2529   2.721   1.374   0.016
  806SOL    HW1 2530   2.675   1.389   0.104
  806SOL    HW2 2531   2.765   1.459  -0.014
  807SOL     OW 2532   2.523   1.790   0.953
  807SOL    HW1 2533   2.477   1.878   0.940
  807SOL    HW2 2534   2.622   1.802   0.946
  808SOL     OW 2535   2.721   0.956   0.861
  808SOL    HW1 2536   2.775   0.887   0.909
  808SOL    HW2 2537   2.689   1.025   0.927
  809SOL     OW 2538   2.945   0.984   0.087
  809SOL    HW1 2539   2.922   1.037   0.005
  809SOL    HW2 2540   3.026   0.928   0.068
  810SOL     OW 2541   1.941   1.240   0.653
  810SOL    HW1 2542   1.940   1.193   0.741
  810SOL    HW2 2543   2.023   1.212   0.602
  811SOL     OW 2544   2.534   1.391   1.624
  811SOL    HW1 2545   2.456   1.341   1.662
  811SOL    HW2 2546   2.531   1.486   1.655
  812SOL     OW 2547   2.290   0.424   0.520
  812SOL    HW1 2548   2.320   0.352   0.458
  812SOL    HW2 2549   2.251   0.384   0.603
  813SOL     OW 2550   2.179   0.547   1.280
  813SOL    HW1 2551   2.217   0.488   1.352
  813SOL    HW2 2552   2.219   0.521   1.192
  814SOL     OW 2553   2.674   1.586   0.687
  814SOL    HW1 2554   2.706   1.596   0.593
  814SOL    HW2 2555   2.595   1.524   0.689
  815SOL     OW 2556   2.863   0.034   1.154
  815SOL    HW1 2557   2.800  -0.038   1.123
  815SOL    HW2 2558   2.956  -0.002   1.154
  816SOL     OW 2559   2.632   1.330   0.301
  816SOL    HW1 2560   2.586   1.243   0.318
  816SOL    HW2 2561   2.723   1.327   0.342
  817SOL     OW 2562   2.480   1.567   1.284
  817SOL    HW1 2563   2.475   1.649   1.341
  817SOL    HW2 2564   2.569   1.564   1.239
  818SOL     OW 2565   3.214   0.052   0.168
  818SOL    HW1 2566   3.249   0.011   0.084
  818SOL    HW2 2567   3.124   0.014   0.188
  819SOL     OW 2568   1.901   1.077   0.300
  819SOL    HW1 2569   2.000   1.066   0.291
  819SOL    HW2 2570   1.861   0.991   0.332
  820SOL     OW 2571   2.737   1.646   0.337
  820SOL    HW1 2572   2.660   1.611   0.283
  820SOL    HW2 2573   2.705   1.717   0.399
  821SOL     OW 2574   2.092   0.628   1.975
  821SOL    HW1 2575   1.999   0.626   2.012
  821SOL    HW2 2576   2.093   0.589   1.883
  822SOL     OW 2577   2.087   0.275   2.858
  822SOL    HW1 2578   2.122   0.258   2.950
  822SOL    HW2 2579   1.999   0.230   2.846
  823SOL     OW 2580   1.881   0.368   2.509
  823SOL    HW1 2581   1.799   0.411   2.548
  823SOL    HW2 2582   1.853   0.295   2.446
  824SOL     OW 2583   2.431   1.275   3.027
  824SOL    HW1 2584   2.338   1.268   2.990
  824SOL    HW2 2585   2.442   1.364   3.071
  825SOL     OW 2586   3.417   1.511   2.565
  825SOL    HW1 2587   3.360   1.495   2.646
  825SOL    HW2 2588   3.358   1.521   2.485
  826SOL     OW 2589   2.997   0.703   2.579
  826SOL    HW1 2590   3.054   0.781   2.554
  826SOL    HW2 2591   2.937   0.729   2.655
  827SOL     OW 2592   2.630   1.144   2.885
  827SOL    HW1 2593   2.552   1.161   2.945
  827SOL    HW2 2594   2.664   1.231   2.849
  828SOL     OW 2595   2.547   1.012   2.527
  828SOL    HW1 2596   2.616   0.996   2.597
  828SOL    HW2 2597   2.474   1.069   2.565
  829SOL     OW 2598   2.197   1.435   2.923
  829SOL    HW1 2599   2.119   1.404   2.870
  829SOL    HW2 2600   2.255   1.493   2.866
  830SOL     OW 2601   2.300   0.392   3.361
  830SOL    HW1 2602   2.382   0.336   3.370
  830SOL    HW2 2603   2.219   0.334   3.365
  831SOL     OW 2604   2.093   1.713   2.345
  831SOL    HW1 2605   2.127   1.790   2.399
  831SOL    HW2 2606   2.137   1.713   2.255
  832SOL     OW 2607   2.092   1.434   2.400
  832SOL    HW1 2608   2.066   1.530   2.400
  832SOL    HW2 2609   2.021   1.380   2.445
  833SOL     OW 2610   2.102   1.091   2.748
  833SOL    HW1 2611   2.116   1.007   2.800
  833SOL    HW2 2612   2.047   1.155   2.803
  834SOL     OW 2613   2.482   1.786   3.301
  834SOL    HW1 2614   2.390   1.769   3.336
  834SOL    HW2 2615   2.510   1.878   3.327
  835SOL     OW 2616   2.468   0.964   1.985
  835SOL    HW1 2617   2.475   1.048   1.931
  835SOL    HW2 2618   2.514   0.977   2.073
  836SOL     OW 2619   1.984   0.643   2.425
  836SOL    HW1 2620   1.939   0.555   2.442
  836SOL    HW2 2621   1.983   0.697   2.509
  837SOL     OW 2622   3.551   0.922   2.474
  837SOL    HW1 2623   3.646   0.893   2.482
  837SOL    HW2 2624   3.543   0.987   2.399
  838SOL     OW 2625   2.475   1.365   2.588
  838SOL    HW1 2626   2.426   1.278   2.597
  838SOL    HW2 2627   2.452   1.408   2.501
  839SOL     OW 2628   2.671   0.004   2.364
  839SOL    HW1 2629   2.711   0.095   2.355
  839SOL    HW2 2630   2.571   0.012   2.370
  840SOL     OW 2631   2.059   0.976   3.126
  840SOL    HW1 2632   2.148   0.931   3.112
  840SOL    HW2 2633   1.986   0.911   3.107
  841SOL     OW 2634   3.328   1.417   2.815
  841SOL    HW1 2635   3.269   1.423   2.895
  841SOL    HW2 2636   3.313   1.329   2.769
  842SOL     OW 2637   2.460   0.729   2.132
  842SOL    HW1 2638   2.484   0.798   2.064
  842SOL    HW2 2639   2.382   0.762   2.186
  843SOL     OW 2640   3.143   0.345   2.806
  843SOL    HW1 2641   3.057   0.295   2.793
  843SOL    HW2 2642   3.205   0.291   2.862
  844SOL     OW 2643   2.669   0.605   3.327
  844SOL    HW1 2644   2.622   0.602   3.416
  844SOL    HW2 2645   2.618   0.550   3.261
  845SOL     OW 2646   2.853   0.410   3.104
  845SOL    HW1 2647   2.776   0.444   3.158
  845SOL    HW2 2648   2.819   0.359   3.025
  846SOL     OW 2649   2.903   0.701   2.291
  846SOL    HW1 2650   2.929   0.697   2.387
  846SOL    HW2 2651   2.818   0.650   2.277
  847SOL     OW 2652   1.938   0.811   2.651
  847SOL    HW1 2653   2.037   0.799   2.660
  847SOL    HW2 2654   1.914   0.906   2.672
  848SOL     OW 2655   1.992   1.821   3.433
  848SOL    HW1 2656   1.982   1.806   3.532
  848SOL    HW2 2657   1.906   1.857   3.397
  849SOL     OW 2658   2.727   0.348   2.057
  849SOL    HW1 2659   2.786   0.411   2.008
  849SOL    HW2 2660   2.746   0.254   2.028
  850SOL     OW 2661   3.224   1.144   2.407
  850SOL    HW1 2662   3.307   1.115   2.359
  850SOL    HW2 2663   3.175   1.211   2.351
  851SOL     OW 2664   2.412   0.196   2.747
  851SOL    HW1 2665   2.407   0.191   2.847
  851SOL    HW2 2666   2.414   0.292   2.718
  852SOL     OW 2667   2.870   1.456   2.339
  852SOL    HW1 2668   2.824   1.528   2.287
  852SOL    HW2 2669   2.866   1.476   2.437
  853SOL     OW 2670   2.213   1.801   2.715
  853SOL    HW1 2671   2.263   1.715   2.721
  853SOL    HW2 2672   2.278   1.878   2.712
  854SOL     OW 2673   2.183   0.943   2.104
  854SOL    HW1 2674   2.265   0.982   2.062
  854SOL    HW2 2675   2.156   0.861   2.055
  855SOL     OW 2676   2.973   1.776   2.099
  855SOL    HW1 2677   2.913   1.714   2.149
  855SOL    HW2 2678   3.004   1.732   2.014
  856SOL     OW 2679   2.326   1.743   2.185
  856SOL    HW1 2680   2.359   1.782   2.271
  856SOL    HW2 2681   2.402   1.736   2.120
  857SOL     OW 2682   2.111   1.785   3.103
  857SOL    HW1 2683   2.168   1.720   3.153
  857SOL    HW2 2684   2.095   1.752   3.010
  858SOL     OW 2685   2.802   1.698   2.766
  858SOL    HW1 2686   2.882   1.641   2.787
  858SOL    HW2 2687   2.753   1.658   2.689
  859SOL     OW 2688   2.244   0.700   2.342
  859SOL    HW1 2689   2.289   0.610   2.339
  859SOL    HW2 2690   2.150   0.689   2.375
  860SOL     OW 2691   2.476   0.122   1.979
  860SOL    HW1 2692   2.574   0.100   1.986
  860SOL    HW2 2693   2.445   0.105   1.886
  861SOL     OW 2694   2.750   1.514   3.057
  861SOL    HW1 2695   2.727   1.489   2.963
  861SOL    HW2 2696   2.811   1.445   3.096
  862SOL     OW 2697   2.665   1.402   2.786
  862SOL    HW1 2698   2.755   1.416   2.744
  862SOL    HW2 2699   2.594   1.404   2.715
  863SOL     OW 2700   2.784   0.503   2.761
  863SOL    HW1 2701   2.759   0.494   2.665
  863SOL    HW2 2702   2.832   0.421   2.792
  864SOL     OW 2703   2.401   0.064   2.374
  864SOL    HW1 2704   2.320   0.065   2.432
  864SOL    HW2 2705   2.404   0.147   2.319
  865SOL     OW 2706   3.296   1.188   1.903
  865SOL    HW1 2707   3.328   1.112   1.960
  865SOL    HW2 2708   3.204   1.215   1.933
  866SOL     OW 2709   2.159   0.035   2.033
  866SOL    HW1 2710   2.208   0.119   2.012
  866SOL    HW2 2711   2.221  -0.030   2.078
  867SOL     OW 2712   2.797   0.236   2.342
  867SOL    HW1 2713   2.749   0.277   2.264
  867SOL    HW2 2714   2.896   0.234   2.323
  868SOL     OW 2715   3.089   1.570   2.655
  868SOL    HW1 2716   3.110   1.644   2.590
  868SOL    HW2 2717   3.157   1.570   2.728
  869SOL     OW 2718   2.321   1.152   2.603
  869SOL    HW1 2719   2.250   1.125   2.668
  869SOL    HW2 2720   2.295   1.124   2.510
  870SOL     OW 2721   3.133   1.797   2.453
  870SOL    HW1 2722   3.177   1.861   2.389
  870SOL    HW2 2723   3.083   1.849   2.523
  871SOL     OW 2724   2.894   0.549   1.878
  871SOL    HW1 2725   2.853   0.631   1.839
  871SOL    HW2 2726   2.958   0.575   1.951
  872SOL     OW 2727   1.940   0.556   3.248
  872SOL    HW1 2728   2.032   0.555   3.207
  872SOL    HW2 2729   1.934   0.630   3.315
  873SOL     OW 2730   2.423   0.222   3.009
  873SOL    HW1 2731   2.461   0.138   3.046
  873SOL    HW2 2732   2.335   0.241   3.053
  874SOL     OW 2733   2.728   0.454   2.504
  874SOL    HW1 2734   2.696   0.526   2.442
  874SOL    HW2 2735   2.752   0.373   2.451
  875SOL     OW 2736   2.879   0.039   2.615
  875SOL    HW1 2737   2.807   0.044   2.546
  875SOL    HW2 2738   2.855  -0.030   2.684
  876SOL     OW 2739   2.350   1.385   2.036
  876SOL    HW1 2740   2.263   1.370   2.083
  876SOL    HW2 2741   2.333   1.411   1.941
  877SOL     OW 2742   3.252   0.575   1.940
  877SOL    HW1 2743   3.198   0.554   2.021
  877SOL    HW2 2744   3.343   0.534   1.949
  878SOL     OW 2745   2.389   0.256   2.190
  878SOL    HW1 2746   2.416   0.197   2.115
  878SOL    HW2 2747   2.389   0.351   2.159
  879SOL     OW 2748   2.926   1.347   3.202
  879SOL    HW1 2749   2.846   1.324   3.257
  879SOL    HW2 2750   3.009   1.321   3.251
  880SOL     OW 2751   2.973   1.195   2.962
  880SOL    HW1 2752   2.933   1.239   3.043
  880SOL    HW2 2753   2.932   1.232   2.879
  881SOL     OW 2754   2.567   1.050   2.230
  881SOL    HW1 2755   2.553   1.057   2.329
  881SOL    HW2 2756   2.651   0.999   2.212
  882SOL     OW 2757   2.272   0.813   3.113
  882SOL    HW1 2758   2.358   0.825   3.163
  882SOL    HW2 2759   2.230   0.726   3.140
  883SOL     OW 2760   3.136   0.386   3.124
  883SOL    HW1 2761   3.157   0.460   3.188
  883SOL    HW2 2762   3.047   0.403   3.081
  884SOL     OW 2763   1.926   1.564   3.193
  884SOL    HW1 2764   1.880   1.646   3.159
  884SOL    HW2 2765   2.024   1.583   3.202
  885SOL     OW 2766   2.229   1.100   2.363
  885SOL    HW1 2767   2.222   1.183   2.307
  885SOL    HW2 2768   2.233   1.020   2.303
  886SOL     OW 2769   2.428   0.537   2.727
  886SOL    HW1 2770   2.440   0.603   2.653
  886SOL    HW2 2771   2.474   0.571   2.810
  887SOL     OW 2772   3.114   1.348   2.250
  887SOL    HW1 2773   3.164   1.425   2.290
  887SOL    HW2 2774   3.019   1.350   2.282
  888SOL     OW 2775   3.134   1.445   3.004
  888SOL    HW1 2776   3.181   1.458   3.091
  888SOL    HW2 2777   3.068   1.371   3.013
  889SOL     OW 2778   2.216   1.510   3.191
  889SOL    HW1 2779   2.195   1.466   3.104
  889SOL    HW2 2780   2.313   1.536   3.194
  890SOL     OW 2781   2.264   0.751   3.460
  890SOL    HW1 2782   2.332   0.806   3.413
  890SOL    HW2 2783   2.304   0.663   3.487
  891SOL     OW 2784   3.449   0.779   3.532
  891SOL    HW1 2785   3.357   0.817   3.527
  891SOL    HW2 2786   3.509   0.826   3.467
  892SOL     OW 2787   2.435   0.870   2.891
  892SOL    HW1 2788   2.479   0.959   2.882
  892SOL    HW2 2789   2.372   0.870   2.968
  893SOL     OW 2790   3.222   0.862   2.907
  893SOL    HW1 2791   3.147   0.862   2.841
  893SOL    HW2 2792   3.259   0.770   2.916
  894SOL     OW 2793   3.071   0.525   2.137
  894SOL    HW1 2794   3.084   0.441   2.191
  894SOL    HW2 2795   3.042   0.599   2.197
  895SOL     OW 2796   2.169   0.213   3.093
  895SOL    HW1 2797   2.146   0.250   3.183
  895SOL    HW2 2798   2.139   0.118   3.087
  896SOL     OW 2799   1.899   1.310   3.144
  896SOL    HW1 2800   1.952   1.261   3.212
  896SOL    HW2 2801   1.921   1.408   3.149
  897SOL     OW 2802   2.594   0.634   2.926
  897SOL    HW1 2803   2.653   0.608   2.850
  897SOL    HW2 2804   2.566   0.730   2.915
  898SOL     OW 2805   2.169   0.063   2.480
  898SOL    HW1 2806   2.158   0.157   2.513
  898SOL    HW2 2807   2.164   0.000   2.557
  899SOL     OW 2808   2.885   0.766   2.828
  899SOL    HW1 2809   2.900   0.787   2.924
  899SOL    HW2 2810   2.855   0.671   2.819
  900SOL     OW 2811   2.842   1.573   3.562
  900SOL    HW1 2812   2.822   1.617   3.474
  900SOL    HW2 2813   2.881   1.482   3.546
  901SOL     OW 2814   3.165   0.838   1.904
  901SOL    HW1 2815   3.199   0.745   1.919
  901SOL    HW2 2816   3.183   0.865   1.809
  902SOL     OW 2817   2.930   1.333   2.711
  902SOL    HW1 2818   2.937   1.249   2.656
  902SOL    HW2 2819   2.992   1.402   2.675
  903SOL     OW 2820   2.181   0.810   2.811
  903SOL    HW1 2821   2.274   0.846   2.816
  903SOL    HW2 2822   2.175   0.725   2.863
  904SOL     OW 2823   2.201   0.509   2.868
  904SOL    HW1 2824   2.149   0.426   2.851
  904SOL    HW2 2825   2.278   0.514   2.804
  905SOL     OW 2826   3.022   0.207   3.339
  905SOL    HW1 2827   3.022   0.271   3.416
  905SOL    HW2 2828   3.050   0.255   3.256
  906SOL     OW 2829   1.950   1.801   2.789
  906SOL    HW1 2830   1.908   1.715   2.762
  906SOL    HW2 2831   2.044   1.804   2.755
  907SOL     OW 2832   2.366   1.568   2.772
  907SOL    HW1 2833   2.432   1.642   2.781
  907SOL    HW2 2834   2.410   1.489   2.730
  908SOL     OW 2835   2.864   0.796   3.100
  908SOL    HW1 2836   2.905   0.764   3.186
  908SOL    HW2 2837   2.768   0.769   3.097
  909SOL     OW 2838   1.902   0.544   2.976
  909SOL    HW1 2839   1.987   0.511   2.935
  909SOL    HW2 2840   1.915   0.559   3.074
  910SOL     OW 2841   2.677   0.572   2.187
  910SOL    HW1 2842   2.684   0.483   2.141
  910SOL    HW2 2843   2.583   0.606   2.179
  911SOL     OW 2844   2.533   0.464   3.131
  911SOL    HW1 2845   2.499   0.375   3.101
  911SOL    HW2 2846   2.559   0.518   3.051
  912SOL     OW 2847   2.792   1.678   3.327
  912SOL    HW1 2848   2.768   1.660   3.232
  912SOL    HW2 2849   2.822   1.772   3.337
  913SOL     OW 2850   2.335   0.500   2.053
  913SOL    HW1 2851   2.396   0.580   2.057
  913SOL    HW2 2852   2.240   0.531   2.060
  914SOL     OW 2853   2.021   1.137   3.328
  914SOL    HW1 2854   2.043   1.076   3.404
  914SOL    HW2 2855   2.031   1.088   3.242
  915SOL     OW 2856   3.209   1.059   3.096
  915SOL    HW1 2857   3.233   0.996   3.022
  915SOL    HW2 2858   3.119   1.099   3.078
  916SOL     OW 2859   3.164   0.855   2.171
  916SOL    HW1 2860   3.078   0.824   2.213
  916SOL    HW2 2861   3.160   0.841   2.072
  917SOL     OW 2862   3.114   1.731   2.990
  917SOL    HW1 2863   3.198   1.736   2.936
  917SOL    HW2 2864   3.091   1.635   3.008
  918SOL     OW 2865   1.945   1.258   2.884
  918SOL    HW1 2866   1.940   1.257   2.984
  918SOL    HW2 2867   1.862   1.217   2.846
  919SOL     OW 2868   3.250   1.573   2.339
  919SOL    HW1 2869   3.317   1.585   2.265
  919SOL    HW2 2870   3.210   1.662   2.362
  920SOL     OW 2871   3.142   0.927   2.534
  920SOL    HW1 2872   3.202   0.846   2.536
  920SOL    HW2 2873   3.182   0.996   2.474
  921SOL     OW 2874   2.534   1.616   2.016
  921SOL    HW1 2875   2.543   1.626   1.917
  921SOL    HW2 2876   2.494   1.527   2.037
  922SOL     OW 2877   2.125   0.326   2.582
  922SOL    HW1 2878   2.046   0.377   2.548
  922SOL    HW2 2879   2.116   0.311   2.680
  923SOL     OW 2880   3.056   1.612   1.893
  923SOL    HW1 2881   3.062   1.519   1.930
  923SOL    HW2 2882   2.997   1.612   1.813
  924SOL     OW 2883   2.684   1.002   3.234
  924SOL    HW1 2884   2.724   1.001   3.142
  924SOL    HW2 2885   2.694   1.094   3.274
  925SOL     OW 2886   2.778   0.910   2.153
  925SOL    HW1 2887   2.841   0.948   2.085
  925SOL    HW2 2888   2.818   0.827   2.192
  926SOL     OW 2889   2.234   1.288   3.352
  926SOL    HW1 2890   2.221   1.381   3.318
  926SOL    HW2 2891   2.150   1.236   3.339
  927SOL     OW 2892   2.901   1.098   2.558
  927SOL    HW1 2893   2.831   1.051   2.612
  927SOL    HW2 2894   2.960   1.030   2.515
  928SOL     OW 2895   2.876   0.236   2.833
  928SOL    HW1 2896   2.868   0.200   2.740
  928SOL    HW2 2897   2.874   0.160   2.898
  929SOL     OW 2898   2.452   1.487   2.353
  929SOL    HW1 2899   2.494   1.429   2.283
  929SOL    HW2 2900   2.408   1.566   2.309
  930SOL     OW 2901   1.937   0.345   1.895
  930SOL    HW1 2902   1.845   0.317   1.866
  930SOL    HW2 2903   1.968   0.422   1.839
  931SOL     OW 2904   3.045   1.335   1.981
  931SOL    HW1 2905   2.946   1.324   1.983
  931SOL    HW2 2906   3.079   1.350   2.074
  932SOL     OW 2907   2.475   0.842   3.293
  932SOL    HW1 2908   2.531   0.923   3.276
  932SOL    HW2 2909   2.534   0.762   3.296
  933SOL     OW 2910   2.252   1.741   3.422
  933SOL    HW1 2911   2.161   1.782   3.420
  933SOL    HW2 2912   2.245   1.647   3.454
  934SOL     OW 2913   3.087   0.325   2.311
  934SOL    HW1 2914   3.152   0.251   2.300
  934SOL    HW2 2915   3.107   0.375   2.395
  935SOL     OW 2916   2.456   0.745   2.514
  935SOL    HW1 2917   2.506   0.830   2.495
  935SOL    HW2 2918   2.368   0.747   2.466
  936SOL     OW 2919   2.721   1.374   1.878
  936SOL    HW1 2920   2.675   1.389   1.966
  936SOL    HW2 2921   2.765   1.459   1.848
  937SOL     OW 2922   2.523   1.790   2.815
  937SOL    HW1 2923   2.477   1.878   2.802
  937SOL    HW2 2924   2.622   1.802   2.808
  938SOL     OW 2925   2.721   0.956   2.723
  938SOL    HW1 2926   2.775   0.887   2.771
  938SOL    HW2 2927   2.689   1.025   2.789
  939SOL     OW 2928   2.945   0.984   1.949
  939SOL    HW1 2929   2.922   1.037   1.867
  939SOL    HW2 2930   3.026   0.928   1.930
  940SOL     OW 2931   1.941   1.240   2.515
  940SOL    HW1 2932   1.940   1.193   2.603
  940SOL    HW2 2933   2.023   1.212   2.464
  941SOL     OW 2934   2.290   0.424   2.382
  941SOL    HW1 2935   2.320   0.352   2.320
  941SOL    HW2 2936   2.251   0.384   2.465
  942SOL     OW 2937   2.179   0.547   3.142
  942SOL    HW1 2938   2.217   0.488   3.214
  942SOL    HW2 2939   2.219   0.521   3.054
  943SOL     OW 2940   2.674   1.586   2.549
  943SOL    HW1 2941   2.706   1.596   2.455
  943SOL    HW2 2942   2.595   1.524   2.551
  944SOL     OW 2943   2.863   0.034   3.016
  944SOL    HW1 2944   2.800  -0.038   2.985
  944SOL    HW2 2945   2.956  -0.002   3.016
  945SOL     OW 2946   2.632   1.330   2.163
  945SOL    HW1 2947   2.586   1.243   2.180
  945SOL    HW2 2948   2.723   1.327   2.204
  946SOL     OW 2949   2.480   1.567   3.146
  946SOL    HW1 2950   2.475   1.649   3.203
  946SOL    HW2 2951   2.569   1.564   3.101
  947SOL     OW 2952   3.214   0.052   2.030
  947SOL    HW1 2953   3.249   0.011   1.946
  947SOL    HW2 2954   3.124   0.014   2.050
  948SOL     OW 2955   1.901   1.077   2.162
  948SOL    HW1 2956   2.000   1.066   2.153
  948SOL    HW2 2957   1.861   0.991   2.194
  949SOL     OW 2958   2.737   1.646   2.199
  949SOL    HW1 2959   2.660   1.611   2.145
  949SOL    HW2 2960   2.705   1.717   2.261
  950SOL     OW 2961   2.092   2.490   0.113
  950SOL    HW1 2962   1.999   2.488   0.150
  950SOL    HW2 2963   2.093   2.451   0.021
  951SOL     OW 2964   2.087   2.137   0.996
  951SOL    HW1 2965   2.122   2.120   1.088
  951SOL    HW2 2966   1.999   2.092   0.984
  952SOL     OW 2967   1.881   2.230   0.647
  952SOL    HW1 2968   1.799   2.273   0.686
  952SOL    HW2 2969   1.853   2.157   0.584
  953SOL     OW 2970   2.431   3.137   1.165
  953SOL    HW1 2971   2.338   3.130   1.128
  953SOL    HW2 2972   2.442   3.226   1.209
  954SOL     OW 2973   3.417   3.373   0.703
  954SOL    HW1 2974   3.360   3.357   0.784
  954SOL    HW2 2975   3.358   3.383   0.623
  955SOL     OW 2976   2.997   2.565   0.717
  955SOL    HW1 2977   3.054   2.643   0.692
  955SOL    HW2 2978   2.937   2.591   0.793
  956SOL     OW 2979   2.630   3.006   1.023
  956SOL    HW1 2980   2.552   3.023   1.083
  956SOL    HW2 2981   2.664   3.093   0.987
  957SOL     OW 2982   2.712   2.660   1.823
  957SOL    HW1 2983   2.708   2.736   1.888
  957SOL    HW2 2984   2.734   2.696   1.732
  958SOL     OW 2985   2.547   2.874   0.665
  958SOL    HW1 2986   2.616   2.858   0.735
  958SOL    HW2 2987   2.474   2.931   0.703
  959SOL     OW 2988   2.548   3.023   1.803
  959SOL    HW1 2989   2.608   3.102   1.817
  959SOL    HW2 2990   2.462   3.054   1.762
  960SOL     OW 2991   2.197   3.297   1.061
  960SOL    HW1 2992   2.119   3.266   1.008
  960SOL    HW2 2993   2.255   3.355   1.004
  961SOL     OW 2994   2.300   2.254   1.499
  961SOL    HW1 2995   2.382   2.198   1.508
  961SOL    HW2 2996   2.219   2.196   1.503
  962SOL     OW 2997   2.093   3.575   0.483
  962SOL    HW1 2998   2.127   3.652   0.537
  962SOL    HW2 2999   2.137   3.575   0.393
  963SOL     OW 3000   2.989   3.203   1.690
  963SOL    HW1 3001   3.036   3.203   1.778
  963SOL    HW2 3002   2.941   3.116   1.679
  964SOL     OW 3003   2.102   2.953   0.886
  964SOL    HW1 3004   2.116   2.869   0.938
  964SOL    HW2 3005   2.047   3.017   0.941
  965SOL     OW 3006   2.468   2.826   0.123
  965SOL    HW1 3007   2.475   2.910   0.069
  965SOL    HW2 3008   2.514   2.839   0.211
  966SOL     OW 3009   1.984   2.505   0.563
  966SOL    HW1 3010   1.939   2.417   0.580
  966SOL    HW2 3011   1.983   2.559   0.647
  967SOL     OW 3012   1.889   3.458   0.117
  967SOL    HW1 3013   1.870   3.362   0.138
  967SOL    HW2 3014   1.856   3.516   0.192
  968SOL     OW 3015   3.551   2.784   0.612
  968SOL    HW1 3016   3.646   2.755   0.620
  968SOL    HW2 3017   3.543   2.849   0.537
  969SOL     OW 3018   1.975   2.599   1.597
  969SOL    HW1 3019   2.063   2.586   1.642
  969SOL    HW2 3020   1.962   2.696   1.575
  970SOL     OW 3021   2.475   3.227   0.726
  970SOL    HW1 3022   2.426   3.140   0.735
  970SOL    HW2 3023   2.452   3.270   0.639
  971SOL     OW 3024   3.155   3.090   1.423
  971SOL    HW1 3025   3.192   3.017   1.365
  971SOL    HW2 3026   3.207   3.095   1.508
  972SOL     OW 3027   2.671   1.866   0.502
  972SOL    HW1 3028   2.711   1.957   0.493
  972SOL    HW2 3029   2.571   1.874   0.508
  973SOL     OW 3030   2.059   2.838   1.264
  973SOL    HW1 3031   2.148   2.793   1.250
  973SOL    HW2 3032   1.986   2.773   1.245
  974SOL     OW 3033   3.328   3.279   0.953
  974SOL    HW1 3034   3.269   3.285   1.033
  974SOL    HW2 3035   3.313   3.191   0.907
  975SOL     OW 3036   2.460   2.591   0.270
  975SOL    HW1 3037   2.484   2.660   0.202
  975SOL    HW2 3038   2.382   2.624   0.324
  976SOL     OW 3039   3.143   2.207   0.944
  976SOL    HW1 3040   3.057   2.157   0.931
  976SOL    HW2 3041   3.205   2.153   1.000
  977SOL     OW 3042   2.669   2.467   1.465
  977SOL    HW1 3043   2.622   2.464   1.554
  977SOL    HW2 3044   2.618   2.412   1.399
  978SOL     OW 3045   3.256   2.331   1.674
  978SOL    HW1 3046   3.236   2.374   1.762
  978SOL    HW2 3047   3.334   2.269   1.683
  979SOL     OW 3048   2.835   2.752   1.572
  979SOL    HW1 3049   2.881   2.668   1.543
  979SOL    HW2 3050   2.779   2.786   1.497
  980SOL     OW 3051   2.853   2.272   1.242
  980SOL    HW1 3052   2.776   2.306   1.296
  980SOL    HW2 3053   2.819   2.221   1.163
  981SOL     OW 3054   2.903   2.563   0.429
  981SOL    HW1 3055   2.929   2.559   0.525
  981SOL    HW2 3056   2.818   2.512   0.415
  982SOL     OW 3057   1.938   2.673   0.789
  982SOL    HW1 3058   2.037   2.661   0.798
  982SOL    HW2 3059   1.914   2.768   0.810
  983SOL     OW 3060   2.727   2.210   0.195
  983SOL    HW1 3061   2.786   2.273   0.146
  983SOL    HW2 3062   2.746   2.116   0.166
  984SOL     OW 3063   3.224   3.006   0.545
  984SOL    HW1 3064   3.307   2.977   0.497
  984SOL    HW2 3065   3.175   3.073   0.489
  985SOL     OW 3066   2.412   2.058   0.885
  985SOL    HW1 3067   2.407   2.053   0.985
  985SOL    HW2 3068   2.414   2.154   0.856
  986SOL     OW 3069   2.870   3.318   0.477
  986SOL    HW1 3070   2.824   3.390   0.425
  986SOL    HW2 3071   2.866   3.338   0.575
  987SOL     OW 3072   2.183   2.805   0.242
  987SOL    HW1 3073   2.265   2.844   0.200
  987SOL    HW2 3074   2.156   2.723   0.193
  988SOL     OW 3075   2.323   3.128   1.727
  988SOL    HW1 3076   2.273   3.129   1.641
  988SOL    HW2 3077   2.260   3.110   1.803
  989SOL     OW 3078   2.244   2.562   0.480
  989SOL    HW1 3079   2.289   2.472   0.477
  989SOL    HW2 3080   2.150   2.551   0.513
  990SOL     OW 3081   2.643   2.126   1.749
  990SOL    HW1 3082   2.710   2.065   1.792
  990SOL    HW2 3083   2.570   2.145   1.814
  991SOL     OW 3084   3.213   2.452   1.433
  991SOL    HW1 3085   3.241   2.409   1.518
  991SOL    HW2 3086   3.238   2.548   1.434
  992SOL     OW 3087   2.784   2.365   0.899
  992SOL    HW1 3088   2.759   2.356   0.803
  992SOL    HW2 3089   2.832   2.283   0.930
  993SOL     OW 3090   2.401   1.926   0.512
  993SOL    HW1 3091   2.320   1.927   0.570
  993SOL    HW2 3092   2.404   2.009   0.457
  994SOL     OW 3093   3.296   3.050   0.041
  994SOL    HW1 3094   3.328   2.974   0.098
  994SOL    HW2 3095   3.204   3.077   0.071
  995SOL     OW 3096   2.159   1.897   0.171
  995SOL    HW1 3097   2.208   1.981   0.150
  995SOL    HW2 3098   2.221   1.832   0.216
  996SOL     OW 3099   2.797   2.098   0.480
  996SOL    HW1 3100   2.749   2.139   0.402
  996SOL    HW2 3101   2.896   2.096   0.461
  997SOL     OW 3102   2.938   2.545   1.464
  997SOL    HW1 3103   2.858   2.484   1.467
  997SOL    HW2 3104   3.019   2.492   1.440
  998SOL     OW 3105   3.089   3.432   0.793
  998SOL    HW1 3106   3.110   3.506   0.728
  998SOL    HW2 3107   3.157   3.432   0.866
  999SOL     OW 3108   2.321   3.014   0.741
  999SOL    HW1 3109   2.250   2.987   0.806
  999SOL    HW2 3110   2.295   2.986   0.648
 1000SOL     OW 3111   2.894   2.411   0.016
 1000SOL    HW1 3112   2.853   2.493  -0.023
 1000SOL    HW2 3113   2.958   2.437   0.089
 1001SOL     OW 3114   1.940   2.418   1.386
 1001SOL    HW1 3115   2.032   2.417   1.345
 1001SOL    HW2 3116   1.934   2.492   1.453
 1002SOL     OW 3117   2.423   2.084   1.147
 1002SOL    HW1 3118   2.461   2.000   1.184
 1002SOL    HW2 3119   2.335   2.103   1.191
 1003SOL     OW 3120   2.728   2.316   0.642
 1003SOL    HW1 3121   2.696   2.388   0.580
 1003SOL    HW2 3122   2.752   2.235   0.589
 1004SOL     OW 3123   2.879   1.901   0.753
 1004SOL    HW1 3124   2.807   1.906   0.684
 1004SOL    HW2 3125   2.855   1.832   0.822
 1005SOL     OW 3126   3.252   2.437   0.078
 1005SOL    HW1 3127   3.198   2.416   0.159
 1005SOL    HW2 3128   3.343   2.396   0.087
 1006SOL     OW 3129   2.389   2.118   0.328
 1006SOL    HW1 3130   2.416   2.059   0.253
 1006SOL    HW2 3131   2.389   2.213   0.297
 1007SOL     OW 3132   2.926   3.209   1.340
 1007SOL    HW1 3133   2.846   3.186   1.395
 1007SOL    HW2 3134   3.009   3.183   1.389
 1008SOL     OW 3135   2.973   3.057   1.100
 1008SOL    HW1 3136   2.933   3.101   1.181
 1008SOL    HW2 3137   2.932   3.094   1.017
 1009SOL     OW 3138   2.777   1.951   1.402
 1009SOL    HW1 3139   2.802   1.931   1.307
 1009SOL    HW2 3140   2.849   2.007   1.444
 1010SOL     OW 3141   2.842   2.978   1.719
 1010SOL    HW1 3142   2.743   2.984   1.729
 1010SOL    HW2 3143   2.865   2.898   1.663
 1011SOL     OW 3144   2.567   2.912   0.368
 1011SOL    HW1 3145   2.553   2.919   0.467
 1011SOL    HW2 3146   2.651   2.861   0.350
 1012SOL     OW 3147   2.272   2.675   1.251
 1012SOL    HW1 3148   2.358   2.687   1.301
 1012SOL    HW2 3149   2.230   2.588   1.278
 1013SOL     OW 3150   3.136   2.248   1.262
 1013SOL    HW1 3151   3.157   2.322   1.326
 1013SOL    HW2 3152   3.047   2.265   1.219
 1014SOL     OW 3153   2.229   2.962   0.501
 1014SOL    HW1 3154   2.222   3.045   0.445
 1014SOL    HW2 3155   2.233   2.882   0.441
 1015SOL     OW 3156   2.428   2.399   0.865
 1015SOL    HW1 3157   2.440   2.465   0.791
 1015SOL    HW2 3158   2.474   2.433   0.948
 1016SOL     OW 3159   3.114   3.210   0.388
 1016SOL    HW1 3160   3.164   3.287   0.428
 1016SOL    HW2 3161   3.019   3.212   0.420
 1017SOL     OW 3162   3.134   3.307   1.142
 1017SOL    HW1 3163   3.181   3.320   1.229
 1017SOL    HW2 3164   3.068   3.233   1.151
 1018SOL     OW 3165   2.216   3.372   1.329
 1018SOL    HW1 3166   2.195   3.328   1.242
 1018SOL    HW2 3167   2.313   3.398   1.332
 1019SOL     OW 3168   2.264   2.613   1.598
 1019SOL    HW1 3169   2.332   2.668   1.551
 1019SOL    HW2 3170   2.304   2.525   1.625
 1020SOL     OW 3171   2.875   1.967   1.770
 1020SOL    HW1 3172   2.881   2.052   1.718
 1020SOL    HW2 3173   2.907   1.891   1.713
 1021SOL     OW 3174   2.366   1.912   1.740
 1021SOL    HW1 3175   2.324   1.855   1.670
 1021SOL    HW2 3176   2.300   1.981   1.772
 1022SOL     OW 3177   2.435   2.732   1.029
 1022SOL    HW1 3178   2.479   2.821   1.020
 1022SOL    HW2 3179   2.372   2.732   1.106
 1023SOL     OW 3180   3.222   2.724   1.045
 1023SOL    HW1 3181   3.147   2.724   0.979
 1023SOL    HW2 3182   3.259   2.632   1.054
 1024SOL     OW 3183   3.071   2.387   0.275
 1024SOL    HW1 3184   3.084   2.303   0.329
 1024SOL    HW2 3185   3.042   2.461   0.335
 1025SOL     OW 3186   1.899   3.172   1.282
 1025SOL    HW1 3187   1.952   3.123   1.350
 1025SOL    HW2 3188   1.921   3.270   1.287
 1026SOL     OW 3189   2.594   2.496   1.064
 1026SOL    HW1 3190   2.653   2.470   0.988
 1026SOL    HW2 3191   2.566   2.592   1.053
 1027SOL     OW 3192   2.169   1.925   0.618
 1027SOL    HW1 3193   2.158   2.019   0.651
 1027SOL    HW2 3194   2.164   1.862   0.695
 1028SOL     OW 3195   3.484   2.229   0.374
 1028SOL    HW1 3196   3.486   2.153   0.438
 1028SOL    HW2 3197   3.436   2.306   0.414
 1029SOL     OW 3198   2.885   2.628   0.966
 1029SOL    HW1 3199   2.900   2.649   1.062
 1029SOL    HW2 3200   2.855   2.533   0.957
 1030SOL     OW 3201   2.212   2.760   1.804
 1030SOL    HW1 3202   2.288   2.804   1.852
 1030SOL    HW2 3203   2.247   2.713   1.722
 1031SOL     OW 3204   3.165   2.700   0.042
 1031SOL    HW1 3205   3.199   2.607   0.057
 1031SOL    HW2 3206   3.183   2.727  -0.053
 1032SOL     OW 3207   2.181   2.672   0.949
 1032SOL    HW1 3208   2.274   2.708   0.954
 1032SOL    HW2 3209   2.175   2.587   1.001
 1033SOL     OW 3210   2.201   2.371   1.006
 1033SOL    HW1 3211   2.149   2.288   0.989
 1033SOL    HW2 3212   2.278   2.376   0.942
 1034SOL     OW 3213   3.000   2.242   1.678
 1034SOL    HW1 3214   2.955   2.305   1.742
 1034SOL    HW2 3215   3.093   2.273   1.661
 1035SOL     OW 3216   3.022   2.069   1.477
 1035SOL    HW1 3217   3.022   2.133   1.554
 1035SOL    HW2 3218   3.050   2.117   1.394
 1036SOL     OW 3219   1.870   3.188   0.200
 1036SOL    HW1 3220   1.777   3.209   0.169
 1036SOL    HW2 3221   1.880   3.089   0.213
 1037SOL     OW 3222   2.864   2.658   1.238
 1037SOL    HW1 3223   2.905   2.626   1.324
 1037SOL    HW2 3224   2.768   2.631   1.235
 1038SOL     OW 3225   1.902   2.406   1.114
 1038SOL    HW1 3226   1.987   2.373   1.073
 1038SOL    HW2 3227   1.915   2.421   1.212
 1039SOL     OW 3228   2.051   2.382   1.722
 1039SOL    HW1 3229   2.110   2.342   1.652
 1039SOL    HW2 3230   1.993   2.453   1.681
 1040SOL     OW 3231   3.231   2.812   1.660
 1040SOL    HW1 3232   3.270   2.901   1.680
 1040SOL    HW2 3233   3.241   2.792   1.563
 1041SOL     OW 3234   2.677   2.434   0.325
 1041SOL    HW1 3235   2.684   2.345   0.279
 1041SOL    HW2 3236   2.583   2.468   0.317
 1042SOL     OW 3237   2.114   3.426   1.744
 1042SOL    HW1 3238   2.084   3.483   1.820
 1042SOL    HW2 3239   2.107   3.329   1.770
 1043SOL     OW 3240   2.533   2.326   1.269
 1043SOL    HW1 3241   2.499   2.237   1.239
 1043SOL    HW2 3242   2.559   2.380   1.189
 1044SOL     OW 3243   2.335   2.362   0.191
 1044SOL    HW1 3244   2.396   2.442   0.195
 1044SOL    HW2 3245   2.240   2.393   0.198
 1045SOL     OW 3246   2.021   2.999   1.466
 1045SOL    HW1 3247   2.043   2.938   1.542
 1045SOL    HW2 3248   2.031   2.950   1.380
 1046SOL     OW 3249   3.209   2.921   1.234
 1046SOL    HW1 3250   3.233   2.858   1.160
 1046SOL    HW2 3251   3.119   2.961   1.216
 1047SOL     OW 3252   3.164   2.717   0.309
 1047SOL    HW1 3253   3.078   2.686   0.351
 1047SOL    HW2 3254   3.160   2.703   0.210
 1048SOL     OW 3255   1.945   3.120   1.022
 1048SOL    HW1 3256   1.940   3.119   1.122
 1048SOL    HW2 3257   1.862   3.079   0.984
 1049SOL     OW 3258   2.765   1.948   0.133
 1049SOL    HW1 3259   2.816   1.949   0.047
 1049SOL    HW2 3260   2.821   1.906   0.204
 1050SOL     OW 3261   3.142   2.789   0.672
 1050SOL    HW1 3262   3.202   2.708   0.674
 1050SOL    HW2 3263   3.182   2.858   0.612
 1051SOL     OW 3264   2.692   3.135   1.422
 1051SOL    HW1 3265   2.687   3.168   1.517
 1051SOL    HW2 3266   2.606   3.154   1.376
 1052SOL     OW 3267   2.125   2.188   0.720
 1052SOL    HW1 3268   2.046   2.239   0.686
 1052SOL    HW2 3269   2.116   2.173   0.818
 1053SOL     OW 3270   2.684   2.864   1.372
 1053SOL    HW1 3271   2.724   2.863   1.280
 1053SOL    HW2 3272   2.694   2.956   1.412
 1054SOL     OW 3273   2.778   2.772   0.291
 1054SOL    HW1 3274   2.841   2.810   0.223
 1054SOL    HW2 3275   2.818   2.689   0.330
 1055SOL     OW 3276   2.234   3.150   1.490
 1055SOL    HW1 3277   2.221   3.243   1.456
 1055SOL    HW2 3278   2.150   3.098   1.477
 1056SOL     OW 3279   2.901   2.960   0.696
 1056SOL    HW1 3280   2.831   2.913   0.750
 1056SOL    HW2 3281   2.960   2.892   0.653
 1057SOL     OW 3282   2.876   2.098   0.971
 1057SOL    HW1 3283   2.868   2.062   0.878
 1057SOL    HW2 3284   2.874   2.022   1.036
 1058SOL     OW 3285   2.117   3.210   0.290
 1058SOL    HW1 3286   2.021   3.211   0.263
 1058SOL    HW2 3287   2.129   3.263   0.374
 1059SOL     OW 3288   1.967   2.875   1.726
 1059SOL    HW1 3289   1.890   2.842   1.780
 1059SOL    HW2 3290   2.052   2.845   1.768
 1060SOL     OW 3291   2.534   2.065   1.489
 1060SOL    HW1 3292   2.624   2.049   1.449
 1060SOL    HW2 3293   2.542   2.070   1.588
 1061SOL     OW 3294   1.937   2.207   0.033
 1061SOL    HW1 3295   1.845   2.179   0.004
 1061SOL    HW2 3296   1.968   2.284  -0.023
 1062SOL     OW 3297   3.302   2.718   1.398
 1062SOL    HW1 3298   3.245   2.770   1.335
 1062SOL    HW2 3299   3.398   2.730   1.374
 1063SOL     OW 3300   1.934   2.028   0.318
 1063SOL    HW1 3301   1.917   2.111   0.264
 1063SOL    HW2 3302   2.024   1.991   0.296
 1064SOL     OW 3303   3.045   3.197   0.119
 1064SOL    HW1 3304   2.946   3.186   0.121
 1064SOL    HW2 3305   3.079   3.212   0.212
 1065SOL     OW 3306   2.475   2.704   1.431
 1065SOL    HW1 3307   2.531   2.785   1.414
 1065SOL    HW2 3308   2.534   2.624   1.434
 1066SOL     OW 3309   2.578   2.427   1.708
 1066SOL    HW1 3310   2.597   2.492   1.782
 1066SOL    HW2 3311   2.638   2.347   1.717
 1067SOL     OW 3312   3.312   3.082   1.633
 1067SOL    HW1 3313   3.303   3.072   1.732
 1067SOL    HW2 3314   3.408   3.075   1.607
 1068SOL     OW 3315   3.087   2.187   0.449
 1068SOL    HW1 3316   3.152   2.113   0.438
 1068SOL    HW2 3317   3.107   2.237   0.533
 1069SOL     OW 3318   2.456   2.607   0.652
 1069SOL    HW1 3319   2.506   2.692   0.633
 1069SOL    HW2 3320   2.368   2.609   0.604
 1070SOL     OW 3321   2.721   3.236   0.016
 1070SOL    HW1 3322   2.675   3.251   0.104
 1070SOL    HW2 3323   2.765   3.321  -0.014
 1071SOL     OW 3324   2.721   2.818   0.861
 1071SOL    HW1 3325   2.775   2.749   0.909
 1071SOL    HW2 3326   2.689   2.887   0.927
 1072SOL     OW 3327   2.945   2.846   0.087
 1072SOL    HW1 3328   2.922   2.899   0.005
 1072SOL    HW2 3329   3.026   2.790   0.068
 1073SOL     OW 3330   2.083   3.176   1.844
 1073SOL    HW1 3331   2.018   3.103   1.823
 1073SOL    HW2 3332   2.087   3.190   1.942
 1074SOL     OW 3333   1.941   3.102   0.653
 1074SOL    HW1 3334   1.940   3.055   0.741
 1074SOL    HW2 3335   2.023   3.074   0.602
 1075SOL     OW 3336   2.534   3.253   1.624
 1075SOL    HW1 3337   2.456   3.203   1.662
 1075SOL    HW2 3338   2.531   3.348   1.655
 1076SOL     OW 3339   2.290   2.286   0.520
 1076SOL    HW1 3340   2.320   2.214   0.458
 1076SOL    HW2 3341   2.251   2.246   0.603
 1077SOL     OW 3342   2.179   2.409   1.280
 1077SOL    HW1 3343   2.217   2.350   1.352
 1077SOL    HW2 3344   2.219   2.383   1.192
 1078SOL     OW 3345   3.286   2.076   1.112
 1078SOL    HW1 3346   3.338   2.011   1.167
 1078SOL    HW2 3347   3.237   2.139   1.173
 1079SOL     OW 3348   2.863   1.896   1.154
 1079SOL    HW1 3349   2.800   1.824   1.123
 1079SOL    HW2 3350   2.956   1.860   1.154
 1080SOL     OW 3351   2.632   3.192   0.301
 1080SOL    HW1 3352   2.586   3.105   0.318
 1080SOL    HW2 3353   2.723   3.189   0.342
 1081SOL     OW 3354   3.214   1.914   0.168
 1081SOL    HW1 3355   3.249   1.873   0.084
 1081SOL    HW2 3356   3.124   1.876   0.188
 1082SOL     OW 3357   1.901   2.939   0.300
 1082SOL    HW1 3358   2.000   2.928   0.291
 1082SOL    HW2 3359   1.861   2.853   0.332
 1083SOL     OW 3360   2.092   2.490   1.975
 1083SOL    HW1 3361   1.999   2.488   2.012
 1083SOL    HW2 3362   2.093   2.451   1.883
 1084SOL     OW 3363   2.087   2.137   2.858
 1084SOL    HW1 3364   2.122   2.120   2.950
 1084SOL    HW2 3365   1.999   2.092   2.846
 1085SOL     OW 3366   1.881   2.230   2.509
 1085SOL    HW1 3367   1.799   2.273   2.548
 1085SOL    HW2 3368   1.853   2.157   2.446
 1086SOL     OW 3369   2.431   3.137   3.027
 1086SOL    HW1 3370   2.338   3.130   2.990
 1086SOL    HW2 3371   2.442   3.226   3.071
 1087SOL     OW 3372   3.417   3.373   2.565
 1087SOL    HW1 3373   3.360   3.357   2.646
 1087SOL    HW2 3374   3.358   3.383   2.485
 1088SOL     OW 3375   2.997   2.565   2.579
 1088SOL    HW1 3376   3.054   2.643   2.554
 1088SOL    HW2 3377   2.937   2.591   2.655
 1089SOL     OW 3378   2.630   3.006   2.885
 1089SOL    HW1 3379   2.552   3.023   2.945
 1089SOL    HW2 3380   2.664   3.093   2.849
 1090SOL     OW 3381   2.547   2.874   2.527
 1090SOL    HW1 3382   2.616   2.858   2.597
 1090SOL    HW2 3383   2.474   2.931   2.565
 1091SOL     OW 3384   2.197   3.297   2.923
 1091SOL    HW1 3385   2.119   3.266   2.870
 1091SOL    HW2 3386   2.255   3.355   2.866
 1092SOL     OW 3387   2.300   2.254   3.361
 1092SOL    HW1 3388   2.382   2.198   3.370
 1092SOL    HW2 3389   2.219   2.196   3.365
 1093SOL     OW 3390   2.093   3.575   2.345
 1093SOL    HW1 3391   2.127   3.652   2.399
 1093SOL    HW2 3392   2.137   3.575   2.255
 1094SOL     OW 3393   2.102   2.953   2.748
 1094SOL    HW1 3394   2.116   2.869   2.800
 1094SOL    HW2 3395   2.047   3.017   2.803
 1095SOL     OW 3396   2.468   2.826   1.985
 1095SOL    HW1 3397   2.475   2.910   1.931
 1095SOL    HW2 3398   2.514   2.839   2.073
 1096SOL     OW 3399   1.984   2.505   2.425
 1096SOL    HW1 3400   1.939   2.417   2.442
 1096SOL    HW2 3401   1.983   2.559   2.509
 1097SOL     OW 3402   1.889   3.458   1.979
 1097SOL    HW1 3403   1.870   3.362   2.000
 1097SOL    HW2 3404   1.856   3.516   2.054
 1098SOL     OW 3405   3.551   2.784   2.474
 1098SOL    HW1 3406   3.646   2.755   2.482
 1098SOL    HW2 3407   3.543   2.849   2.399
 1099SOL     OW 3408   2.475   3.227   2.588
 1099SOL    HW1 3409   2.426   3.140   2.597
 1099SOL    HW2 3410   2.452   3.270   2.501
 1100SOL     OW 3411   2.671   1.866   2.364
 1100SOL    HW1 3412   2.711   1.957   2.355
 1100SOL    HW2 3413   2.571   1.874   2.370
 1101SOL     OW 3414   2.059   2.838   3.126
 1101SOL    HW1 3415   2.148   2.793   3.112
 1101SOL    HW2 3416   1.986   2.773   3.107
 1102SOL     OW 3417   3.328   3.279   2.815
 1102SOL    HW1 3418   3.269   3.285   2.895
 1102SOL    HW2 3419   3.313   3.191   2.769
 1103SOL     OW 3420   2.460   2.591   2.132
 1103SOL    HW1 3421   2.484   2.660   2.064
 1103SOL    HW2 3422   2.382   2.624   2.186
 1104SOL     OW 3423   3.143   2.207   2.806
 1104SOL    HW1 3424   3.057   2.157   2.793
 1104SOL    HW2 3425   3.205   2.153   2.862
 1105SOL     OW 3426   2.669   2.467   3.327
 1105SOL    HW1 3427   2.622   2.464   3.416
 1105SOL    HW2 3428   2.618   2.412   3.261
 1106SOL     OW 3429   2.853   2.272   3.104
 1106SOL    HW1 3430   2.776   2.306   3.158
 1106SOL    HW2 3431   2.819   2.221   3.025
 1107SOL     OW 3432   2.903   2.563   2.291
 1107SOL    HW1 3433   2.929   2.559   2.387
 1107SOL    HW2 3434   2.818   2.512   2.277
 1108SOL     OW 3435   1.938   2.673   2.651
 1108SOL    HW1 3436   2.037   2.661   2.660
 1108SOL    HW2 3437   1.914   2.768   2.672
 1109SOL     OW 3438   2.727   2.210   2.057
 1109SOL    HW1 3439   2.786   2.273   2.008
 1109SOL    HW2 3440   2.746   2.116   2.028
 1110SOL     OW 3441   3.224   3.006   2.407
 1110SOL    HW1 3442   3.307   2.977   2.359
 1110SOL    HW2 3443   3.175   3.073   2.351
 1111SOL     OW 3444   2.412   2.058   2.747
 1111SOL    HW1 3445   2.407   2.053   2.847
 1111SOL    HW2 3446   2.414   2.154   2.718
 1112SOL     OW 3447   2.870   3.318   2.339
 1112SOL    HW1 3448   2.824   3.390   2.287
 1112SOL    HW2 3449   2.866   3.338   2.437
 1113SOL     OW 3450   2.183   2.805   2.104
 1113SOL    HW1 3451   2.265   2.844   2.062
 1113SOL    HW2 3452   2.156   2.723   2.055
 1114SOL     OW 3453   2.323   3.128   3.589
 1114SOL    HW1 3454   2.273   3.129   3.503
 1114SOL    HW2 3455   2.260   3.110   3.665
 1115SOL     OW 3456   2.973   3.638   2.099
 1115SOL    HW1 3457   2.913   3.576   2.149
 1115SOL    HW2 3458   3.004   3.594   2.014
 1116SOL     OW 3459   2.244   2.562   2.342
 1116SOL    HW1 3460   2.289   2.472   2.339
 1116SOL    HW2 3461   2.150   2.551   2.375
 1117SOL     OW 3462   2.476   1.984   1.979
 1117SOL    HW1 3463   2.574   1.962   1.986
 1117SOL    HW2 3464   2.445   1.967   1.886
 1118SOL     OW 3465   2.784   2.365   2.761
 1118SOL    HW1 3466   2.759   2.356   2.665
 1118SOL    HW2 3467   2.832   2.283   2.792
 1119SOL     OW 3468   2.401   1.926   2.374
 1119SOL    HW1 3469   2.320   1.927   2.432
 1119SOL    HW2 3470   2.404   2.009   2.319
 1120SOL     OW 3471   3.296   3.050   1.903
 1120SOL    HW1 3472   3.328   2.974   1.960
 1120SOL    HW2 3473   3.204   3.077   1.933
 1121SOL     OW 3474   2.797   2.098   2.342
 1121SOL    HW1 3475   2.749   2.139   2.264
 1121SOL    HW2 3476   2.896   2.096   2.323
 1122SOL     OW 3477   3.089   3.432   2.655
 1122SOL    HW1 3478   3.110   3.506   2.590
 1122SOL    HW2 3479   3.157   3.432   2.728
 1123SOL     OW 3480   2.321   3.014   2.603
 1123SOL    HW1 3481   2.250   2.987   2.668
 1123SOL    HW2 3482   2.295   2.986   2.510
 1124SOL     OW 3483   2.894   2.411   1.878
 1124SOL    HW1 3484   2.853   2.493   1.839
 1124SOL    HW2 3485   2.958   2.437   1.951
 1125SOL     OW 3486   1.940   2.418   3.248
 1125SOL    HW1 3487   2.032   2.417   3.207
 1125SOL    HW2 3488   1.934   2.492   3.315
 1126SOL     OW 3489   2.423   2.084   3.009
 1126SOL    HW1 3490   2.461   2.000   3.046
 1126SOL    HW2 3491   2.335   2.103   3.053
 1127SOL     OW 3492   2.728   2.316   2.504
 1127SOL    HW1 3493   2.696   2.388   2.442
 1127SOL    HW2 3494   2.752   2.235   2.451
 1128SOL     OW 3495   2.879   1.901   2.615
 1128SOL    HW1 3496   2.807   1.906   2.546
 1128SOL    HW2 3497   2.855   1.832   2.684
 1129SOL     OW 3498   3.252   2.437   1.940
 1129SOL    HW1 3499   3.198   2.416   2.021
 1129SOL    HW2 3500   3.343   2.396   1.949
 1130SOL     OW 3501   2.389   2.118   2.190
 1130SOL    HW1 3502   2.416   2.059   2.115
 1130SOL    HW2 3503   2.389   2.213   2.159
 1131SOL     OW 3504   2.926   3.209   3.202
 1131SOL    HW1 3505   2.846   3.186   3.257
 1131SOL    HW2 3506   3.009   3.183   3.251
 1132SOL     OW 3507   2.973   3.057   2.962
 1132SOL    HW1 3508   2.933   3.101   3.043
 1132SOL    HW2 3509   2.932   3.094   2.879
 1133SOL     OW 3510   2.567   2.912   2.230
 1133SOL    HW1 3511   2.553   2.919   2.329
 1133SOL    HW2 3512   2.651   2.861   2.212
 1134SOL     OW 3513   2.272   2.675   3.113
 1134SOL    HW1 3514   2.358   2.687   3.163
 1134SOL    HW2 3515   2.230   2.588   3.140
 1135SOL     OW 3516   3.136   2.248   3.124
 1135SOL    HW1 3517   3.157   2.322   3.188
 1135SOL    HW2 3518   3.047   2.265   3.081
 1136SOL     OW 3519   2.229   2.962   2.363
 1136SOL    HW1 3520   2.222   3.045   2.307
 1136SOL    HW2 3521   2.233   2.882   2.303
 1137SOL     OW 3522   2.428   2.399   2.727
 1137SOL    HW1 3523   2.440   2.465   2.653
 1137SOL    HW2 3524   2.474   2.433   2.810
 1138SOL     OW 3525   3.114   3.210   2.250
 1138SOL    HW1 3526   3.164   3.287   2.290
 1138SOL    HW2 3527   3.019   3.212   2.282
 1139SOL     OW 3528   3.134   3.307   3.004
 1139SOL    HW1 3529   3.181   3.320   3.091
 1139SOL    HW2 3530   3.068   3.233   3.013
 1140SOL     OW 3531   2.216   3.372   3.191
 1140SOL    HW1 3532   2.195   3.328   3.104
 1140SOL    HW2 3533   2.313   3.398   3.194
 1141SOL     OW 3534   2.264   2.613   3.460
 1141SOL    HW1 3535   2.332   2.668   3.413
 1141SOL    HW2 3536   2.304   2.525   3.487
 1142SOL     OW 3537   3.449   2.641   3.532
 1142SOL    HW1 3538   3.357   2.679   3.527
 1142SOL    HW2 3539   3.509   2.688   3.467
 1143SOL     OW 3540   2.435   2.732   2.891
 1143SOL    HW1 3541   2.479   2.821   2.882
 1143SOL    HW2 3542   2.372   2.732   2.968
 1144SOL     OW 3543   3.222   2.724   2.907
 1144SOL    HW1 3544   3.147   2.724   2.841
 1144SOL    HW2 3545   3.259   2.632   2.916
 1145SOL     OW 3546   3.071   2.387   2.137
 1145SOL    HW1 3547   3.084   2.303   2.191
 1145SOL    HW2 3548   3.042   2.461   2.197
 1146SOL     OW 3549   2.169   2.075   3.093
 1146SOL    HW1 3550   2.146   2.112   3.183
 1146SOL    HW2 3551   2.139   1.980   3.087
 1147SOL     OW 3552   1.899   3.172   3.144
 1147SOL    HW1 3553   1.952   3.123   3.212
 1147SOL    HW2 3554   1.921   3.270   3.149
 1148SOL     OW 3555   2.594   2.496   2.926
 1148SOL    HW1 3556   2.653   2.470   2.850
 1148SOL    HW2 3557   2.566   2.592   2.915
 1149SOL     OW 3558   2.169   1.925   2.480
 1149SOL    HW1 3559   2.158   2.019   2.513
 1149SOL    HW2 3560   2.164   1.862   2.557
 1150SOL     OW 3561   3.484   2.229   2.236
 1150SOL    HW1 3562   3.486   2.153   2.300
 1150SOL    HW2 3563   3.436   2.306   2.276
 1151SOL     OW 3564   2.885   2.628   2.828
 1151SOL    HW1 3565   2.900   2.649   2.924
 1151SOL    HW2 3566   2.855   2.533   2.819
 1152SOL     OW 3567   3.165   2.700   1.904
 1152SOL    HW1 3568   3.199   2.607   1.919
 1152SOL    HW2 3569   3.183   2.727   1.809
 1153SOL     OW 3570   2.181   2.672   2.811
 1153SOL    HW1 3571   2.274   2.708   2.816
 1153SOL    HW2 3572   2.175   2.587   2.863
 1154SOL     OW 3573   2.201   2.371   2.868
 1154SOL    HW1 3574   2.149   2.288   2.851
 1154SOL    HW2 3575   2.278   2.376   2.804
 1155SOL     OW 3576   3.022   2.069   3.339
 1155SOL    HW1 3577   3.022   2.133   3.416
 1155SOL    HW2 3578   3.050   2.117   3.256
 1156SOL     OW 3579   1.870   3.188   2.062
 1156SOL    HW1 3580   1.777   3.209   2.031
 1156SOL    HW2 3581   1.880   3.089   2.075
 1157SOL     OW 3582   2.864   2.658   3.100
 1157SOL    HW1 3583   2.905   2.626   3.186
 1157SOL    HW2 3584   2.768   2.631   3.097
 1158SOL     OW 3585   1.902   2.406   2.976
 1158SOL    HW1 3586   1.987   2.373   2.935
 1158SOL    HW2 3587   1.915   2.421   3.074
 1159SOL     OW 3588   2.677   2.434   2.187
 1159SOL    HW1 3589   2.684   2.345   2.141
 1159SOL    HW2 3590   2.583   2.468   2.179
 1160SOL     OW 3591   2.533   2.326   3.131
 1160SOL    HW1 3592   2.499   2.237   3.101
 1160SOL    HW2 3593   2.559   2.380   3.051
 1161SOL     OW 3594   2.335   2.362   2.053
 1161SOL    HW1 3595   2.396   2.442   2.057
 1161SOL    HW2 3596   2.240   2.393   2.060
 1162SOL     OW 3597   2.021   2.999   3.328
 1162SOL    HW1 3598   2.043   2.938   3.404
 1162SOL    HW2 3599   2.031   2.950   3.242
 1163SOL     OW 3600   3.209   2.921   3.096
 1163SOL    HW1 3601   3.233   2.858   3.022
 1163SOL    HW2 3602   3.119   2.961   3.078
 1164SOL     OW 3603   3.164   2.717   2.171
 1164SOL    HW1 3604   3.078   2.686   2.213
 1164SOL    HW2 3605   3.160   2.703   2.072
 1165SOL     OW 3606   1.945   3.120   2.884
 1165SOL    HW1 3607   1.940   3.119   2.984
 1165SOL    HW2 3608   1.862   3.079   2.846
 1166SOL     OW 3609   3.142   2.789   2.534
 1166SOL    HW1 3610   3.202   2.708   2.536
 1166SOL    HW2 3611   3.182   2.858   2.474
 1167SOL     OW 3612   2.125   2.188   2.582
 1167SOL    HW1 3613   2.046   2.239   2.548
 1167SOL    HW2 3614   2.116   2.173   2.680
 1168SOL     OW 3615   2.684   2.864   3.234
 1168SOL    HW1 3616   2.724   2.863   3.142
 1168SOL    HW2 3617   2.694   2.956   3.274
 1169SOL     OW 3618   2.778   2.772   2.153
 1169SOL    HW1 3619   2.841   2.810   2.085
 1169SOL    HW2 3620   2.818   2.689   2.192
 1170SOL     OW 3621   3.366   3.469   1.906
 1170SOL    HW1 3622   3.274   3.506   1.913
 1170SOL    HW2 3623   3.404   3.489   1.816
 1171SOL     OW 3624   2.234   3.150   3.352
 1171SOL    HW1 3625   2.221   3.243   3.318
 1171SOL    HW2 3626   2.150   3.098   3.339
 1172SOL     OW 3627   2.901   2.960   2.558
 1172SOL    HW1 3628   2.831   2.913   2.612
 1172SOL    HW2 3629   2.960   2.892   2.515
 1173SOL     OW 3630   2.876   2.098   2.833
 1173SOL    HW1 3631   2.868   2.062   2.740
 1173SOL    HW2 3632   2.874   2.022   2.898
 1174SOL     OW 3633   2.117   3.210   2.152
 1174SOL    HW1 3634   2.021   3.211   2.125
 1174SOL    HW2 3635   2.129   3.263   2.236
 1175SOL     OW 3636   2.534   2.065   3.351
 1175SOL    HW1 3637   2.624   2.049   3.311
 1175SOL    HW2 3638   2.542   2.070   3.450
 1176SOL     OW 3639   3.045   3.197   1.981
 1176SOL    HW1 3640   2.946   3.186   1.983
 1176SOL    HW2 3641   3.079   3.212   2.074
 1177SOL     OW 3642   2.475   2.704   3.293
 1177SOL    HW1 3643   2.531   2.785   3.276
 1177SOL    HW2 3644   2.534   2.624   3.296
 1178SOL     OW 3645   3.087   2.187   2.311
 1178SOL    HW1 3646   3.152   2.113   2.300
 1178SOL    HW2 3647   3.107   2.237   2.395
 1179SOL     OW 3648   2.456   2.607   2.514
 1179SOL    HW1 3649   2.506   2.692   2.495
 1179SOL    HW2 3650   2.368   2.609   2.466
 1180SOL     OW 3651   2.721   3.236   1.878
 1180SOL    HW1 3652   2.675   3.251   1.966
 1180SOL    HW2 3653   2.765   3.321   1.848
 1181SOL     OW 3654   2.721   2.818   2.723
 1181SOL    HW1 3655   2.775   2.749   2.771
 1181SOL    HW2 3656   2.689   2.887   2.789
 1182SOL     OW 3657   2.945   2.846   1.949
 1182SOL    HW1 3658   2.922   2.899   1.867
 1182SOL    HW2 3659   3.026   2.790   1.930
 1183SOL     OW 3660   1.941   3.102   2.515
 1183SOL    HW1 3661   1.940   3.055   2.603
 1183SOL    HW2 3662   2.023   3.074   2.464
 1184SOL     OW 3663   2.290   2.286   2.382
 1184SOL    HW1 3664   2.320   2.214   2.320
 1184SOL    HW2 3665   2.251   2.246   2.465
 1185SOL     OW 3666   2.179   2.409   3.142
 1185SOL    HW1 3667   2.217   2.350   3.214
 1185SOL    HW2 3668   2.219   2.383   3.054
 1186SOL     OW 3669   3.286   2.076   2.974
 1186SOL    HW1 3670   3.338   2.011   3.029
 1186SOL    HW2 3671   3.237   2.139   3.035
 1187SOL     OW 3672   2.863   1.896   3.016
 1187SOL    HW1 3673   2.800   1.824   2.985
 1187SOL    HW2 3674   2.956   1.860   3.016
 1188SOL     OW 3675   2.632   3.192   2.163
 1188SOL    HW1 3676   2.586   3.105   2.180
 1188SOL    HW2 3677   2.723   3.189   2.204
 1189SOL     OW 3678   3.214   1.914   2.030
 1189SOL    HW1 3679   3.249   1.873   1.946
 1189SOL    HW2 3680   3.124   1.876   2.050
 1190SOL     OW 3681   1.901   2.939   2.162
 1190SOL    HW1 3682   2.000   2.928   2.153
 1190SOL    HW2 3683   1.861   2.853   2.194
   3.35432   3.35432   3.35432
